# vtk DataFile Version 3.0
Mesquite Mesh
ASCII
DATASET UNSTRUCTURED_GRID
POINTS 168 double
1.19868766 1.03882022e-15 -5
0.9938175673 0.9784146773 -5
0.4185136079 1.796397662 -5
-0.4261812595 2.332661511 -5
-1.409635778 2.518542369 -5
-2.393090297 2.332661511 -5
-3.237785164 1.796397662 -5
-3.813089123 0.9784146773 -5
-4.017959216 -7.303979213e-16 -5
-3.813089123 -0.9784146773 -5
-3.237785164 -1.796397662 -5
-2.393090297 -2.332661511 -5
-1.409635778 -2.518542369 -5
-0.4261812595 -2.332661511 -5
0.4185136079 -1.796397662 -5
0.9938175673 -0.9784146773 -5
-5 -5 -5
5 -5 -5
4 -5 -5
3 -5 -5
2 -5 -5
1 -5 -5
0 -5 -5
-1 -5 -5
-2 -5 -5
-3 -5 -5
-4 -5 -5
-5 5 -5
-5 -4 -5
-5 -3 -5
-5 -2 -5
-5 -1 -5
-5 0 -5
-5 1 -5
-5 2 -5
-5 3 -5
-5 4 -5
5 5 -5
-4 5 -5
-3 5 -5
-2 5 -5
-1 5 -5
0 5 -5
1 5 -5
2 5 -5
3 5 -5
4 5 -5
5 4 -5
5 3 -5
5 2 -5
5 1 -5
5 0 -5
5 -1 -5
5 -2 -5
5 -3 -5
5 -4 -5
2.110187916 -0.03131357212 -5
1.961859142 -1.198849634 -5
1.825832255 1.039375763 -5
3.141799917 1.069607498 -5
3.423513724 0.0167026035 -5
3.52461916 -0.9839026841 -5
1.103755255 1.980259022 -5
2.403616071 2.24486889 -5
2.769961484 -2.617838983 -5
0.9501468341 -2.100282607 -5
-0.008965045079 -2.621599573 -5
2.212198255 -3.056613178 -5
1.555456488 -2.522336092 -5
0.563180778 -2.962784699 -5
-0.4521353457 -3.218003111 -5
-1.006840303 -2.85613718 -5
-1.852784434 -2.824270289 -5
-1.357990552 -3.267954069 -5
-2.246506513 -3.162759636 -5
-2.579929535 -2.712338748 -5
-2.724595473 -2.394783553 -5
-3.257030919 -2.079272914 -5
-3.725738345 -1.509725964 -5
-4.025173542 -1.02553677 -5
-4.06640805 -0.5465563358 -5
-4.140545526 -0.00757829866 -5
-4.091949376 0.4351814125 -5
-3.200498587 -2.440434422 -5
-3.682209001 -1.977462301 -5
-4.004250983 -1.476725565 -5
-4.22819707 -1.076413042 -5
-4.218372207 -0.6830348783 -5
-4.20912339 -0.3517050954 -5
-4.24258235 -0.0005597425142 -5
-4.203931714 0.4757306573 -5
-3.954338661 1.135303022 -5
-3.050556444 -2.885485278 -5
-3.677440866 -2.434200075 -5
-4.002629254 -1.91384095 -5
-4.245093166 -1.52015545 -5
-4.434194096 -1.120356276 -5
-4.397112984 -0.7214853074 -5
-4.356168632 -0.4218411208 -5
-4.302308655 -0.2741295429 -5
-4.344864965 -0.02157815818 -5
-4.337342862 0.4798473997 -5
-4.1276099 1.290454603 -5
-3.330858977 2.690429816 -5
-3.26980934 2.204822943 -5
-2.212300957 2.699211307 -5
-1.106852232 2.843401174 -5
-1.791745977 3.174857402 -5
0.01720361416 2.618218429 -5
3.106637388 3.130242585 -5
3.628128084 4.032157075 -5
2.342653873 4.138207873 -5
1.145192527 4.261169024 -5
0.01557040222 4.344016292 -5
-0.995312867 4.376173225 -5
-1.919935767 4.381336918 -5
-2.823425145 4.386902086 -5
-3.589472596 4.314060595 -5
-4.34273805 4.156254396 -5
-4.568749036 2.956663915 -5
-4.758569937 1.754831083 -5
-4.821139394 0.6420356964 -5
-4.846185713 -0.2344479552 -5
-4.851719328 -0.8781713155 -5
-4.781430014 -1.486789522 -5
-4.644387489 -2.385353462 -5
-4.46959615 -3.95405211 -5
-3.872262171 -3.979958033 -5
-3.010517965 -4.130402374 -5
-2.057796731 -4.260950956 -5
-0.9659829053 -4.33208971 -5
0.08334350698 -4.311978381 -5
1.112663741 -4.212459474 -5
2.167949082 -4.041830837 -5
3.329583087 -3.742133001 -5
3.650758941 -2.822560334 -5
3.648228755 -1.9167739 -5
0.7301932486 2.976461242 -5
1.564229319 3.468179771 -5
0.2279124516 3.70697673 -5
-0.9721584856 3.78698234 -5
-1.946530067 3.745043898 -5
-2.685116068 3.729585306 -5
-4.043282989 3.153099452 -5
-4.252892803 -2.722792001 -5
-3.782938225 -2.878997543 -5
-2.718817054 -3.479015171 -5
-1.730722148 -3.709394555 -5
-0.7342324254 -3.751572258 -5
0.2552910266 -3.6490135 -5
1.272447349 -3.407507228 -5
-4.541772708 1.559238439 -5
-4.664406475 0.2633093148 -5
-4.706812304 -0.4703421911 -5
-4.641442914 -1.109528255 -5
-4.052211607 -2.238298629 -5
-4.496402483 -1.603182725 -5
-4.524372453 -0.3624576543 -5
-4.444559658 -0.1207244014 -5
-3.712617089 2.844090645 -5
-4.32880582 1.414339706 -5
-4.492330262 0.417817634 -5
-4.281720366 -2.067821616 -5
-4.576622621 -0.769143145 -5
-4.736841449 -0.833114197 -5
2.4938577 -1.992510245 -5
-0.5787385718 3.237549098 -5
-3.107896306 3.827324151 -5
CELLS 140 700
4 57 15 0 56
4 65 14 15 57
4 58 56 0 1
4 59 60 56 58
4 61 57 56 60
4 62 58 1 2
4 63 59 58 62
4 49 50 59 63
4 51 60 59 50
4 52 61 60 51
4 66 13 14 65
4 69 66 65 68
4 70 71 66 69
4 12 13 66 71
4 72 11 12 71
4 73 72 71 70
4 74 75 72 73
4 76 11 72 75
4 77 10 11 76
4 78 9 10 77
4 79 80 9 78
4 81 8 9 80
4 82 7 8 81
4 83 77 76 75
4 84 78 77 83
4 85 79 78 84
4 86 87 79 85
4 88 80 79 87
4 89 81 80 88
4 90 82 81 89
4 91 7 82 90
4 92 83 75 74
4 93 84 83 92
4 94 85 84 93
4 95 86 85 94
4 96 97 86 95
4 98 87 86 97
4 99 88 87 98
4 100 89 88 99
4 101 90 89 100
4 102 91 90 101
4 103 104 91 102
4 105 5 6 104
4 106 4 5 105
4 107 105 104 103
4 62 2 3 108
4 109 48 49 63
4 110 47 48 109
4 46 37 47 110
4 111 45 46 110
4 112 44 45 111
4 113 43 44 112
4 114 42 43 113
4 115 41 42 114
4 116 40 41 115
4 117 39 40 116
4 118 38 39 117
4 36 27 38 118
4 119 35 36 118
4 120 34 35 119
4 121 33 34 120
4 122 32 33 121
4 123 31 32 122
4 124 30 31 123
4 125 29 30 124
4 126 28 29 125
4 26 16 28 126
4 127 25 26 126
4 128 24 25 127
4 129 23 24 128
4 130 22 23 129
4 131 21 22 130
4 132 20 21 131
4 133 19 20 132
4 134 18 19 133
4 55 17 18 134
4 135 54 55 134
4 136 53 54 135
4 61 52 53 136
4 63 62 108 137
4 138 111 110 109
4 139 112 111 138
4 140 113 112 139
4 141 114 113 140
4 142 115 114 141
4 119 118 117 143
4 144 127 126 125
4 145 128 127 144
4 147 130 129 146
4 148 131 130 147
4 149 132 131 148
4 150 133 132 149
4 151 120 119 143
4 152 121 120 151
4 153 122 121 152
4 164 123 122 153
4 154 124 123 164
4 69 68 67 150
4 149 70 69 150
4 148 73 70 149
4 147 74 73 148
4 146 92 74 147
4 145 93 92 146
4 146 129 128 145
4 155 94 93 145
4 162 95 94 155
4 156 96 95 162
4 154 163 96 156
4 157 97 96 163
4 161 101 100 158
4 160 102 101 161
4 159 103 102 160
4 109 63 137 138
4 160 151 143 159
4 161 152 151 160
4 162 155 145 144
4 125 156 162 144
4 124 154 156 125
4 152 157 163 153
4 161 158 157 152
4 164 153 163 154
4 158 98 97 157
4 100 99 98 158
4 134 67 64 135
4 133 150 67 134
4 67 68 165 64
4 135 64 165 136
4 61 136 165 57
4 65 57 165 68
4 7 91 104 6
4 106 108 3 4
4 166 137 108 106
4 139 138 137 166
4 140 139 166 107
4 107 166 106 105
4 103 141 140 107
4 159 142 141 103
4 143 117 116 167
4 159 143 167 142
4 167 116 115 142
CELL_TYPES 140
9
9
9
9
9
9
9
9
9
9
9
9
9
9
9
9
9
9
9
9
9
9
9
9
9
9
9
9
9
9
9
9
9
9
9
9
9
9
9
9
9
9
9
9
9
9
9
9
9
9
9
9
9
9
9
9
9
9
9
9
9
9
9
9
9
9
9
9
9
9
9
9
9
9
9
9
9
9
9
9
9
9
9
9
9
9
9
9
9
9
9
9
9
9
9
9
9
9
9
9
9
9
9
9
9
9
9
9
9
9
9
9
9
9
9
9
9
9
9
9
9
9
9
9
9
9
9
9
9
9
9
9
9
9
9
9
9
9
9
9
POINT_DATA 168
SCALARS fixed int
LOOKUP_TABLE default
1
1
1
1
1
1
1
1
1
1
1
1
1
1
1
1
1
1
1
1
1
1
1
1
1
1
1
1
1
1
1
1
1
1
1
1
1
1
1
1
1
1
1
1
1
1
1
1
1
1
1
1
1
1
1
1
0
0
0
0
0
0
0
0
0
0
0
0
0
0
0
0
0
0
0
0
0
0
0
0
0
0
0
0
0
0
0
0
0
0
0
0
0
0
0
0
0
0
0
0
0
0
0
0
0
0
0
0
0
0
0
0
0
0
0
0
0
0
0
0
0
0
0
0
0
0
0
0
0
0
0
0
0
0
0
0
0
0
0
0
0
0
0
0
0
0
0
0
0
0
0
0
0
0
0
0
0
0
0
0
0
0
0
0
0
0
0
0
