# vtk DataFile Version 2.0
Mesquite Mesh ../../meshFiles/2D/vtk/quads/tangled/hole_in_square.vtk .
ASCII
DATASET UNSTRUCTURED_GRID
POINTS 9 float
0.0 1.0 0.0
0.5 1.0 0.0
1.0 1.0 0.0
0.0 0.5 0.0
0.5 0.5 0.0
1.0 0.5 0.0
0.0 0.0 0.0
0.5 0.0 0.0
1.0 0.0 0.0
CELLS 4 20
4 0 3 4 1
4 1 4 5 2
4 3 6 7 4
4 4 7 8 5
CELL_TYPES 4
9
9
9
9
POINT_DATA 9
SCALARS fixed float
LOOKUP_TABLE default
1
1
1
1
0
1
1
1
1