ITEM: TIMESTEP
0
ITEM: NUMBER OF ATOMS
6875
ITEM: BOX BOUNDS sm sm sm
0 4
0 2
0 0
ITEM: ATOMS id type tag x y z damage s11 s22 s33 s12 s13 s23 vx T ienergy 
1 1 1 0.0199981 0.02 0 0 -0.0085064 -0.00539485 -0.00444605 -0.00250346 0 0 -0.0613489 0 0 
2 1 2 0.0199974 0.0599998 0 0 -0.00677472 -0.00213795 -0.00283993 0.00149022 0 0 -0.16982 0 0 
3 1 3 0.0199987 0.1 0 0 0.00541232 0.00381893 0.00297094 0.00127815 0 0 -0.0326313 0 0 
4 1 4 0.0200008 0.14 0 0 0.0194091 0.0109808 0.00974778 0.00376022 0 0 -0.269238 0 0 
5 1 5 0.0200008 0.18 0 0 0.0248909 0.00697987 0.0102244 0.000251685 0 0 -0.48037 0 0 
6 1 6 0.0200012 0.219999 0 0 0.0263617 0.00461336 0.00993842 -0.00310852 0 0 -0.623795 0 0 
7 1 7 0.0200009 0.259998 0 0 0.0230702 -0.00508363 0.00577831 -0.0125246 0 0 -0.596574 0 0 
8 1 8 0.020001 0.299995 0 0 0.0205539 -0.00676152 0.00443714 -0.02321 0 0 -0.576887 0 0 
9 1 9 0.0199998 0.339992 0 0 0.013162 -0.0087309 0.00143864 -0.0358118 0 0 -0.418162 0 0 
10 1 10 0.0199991 0.37999 0 0 0.00323468 -0.00946422 -0.00197541 -0.0437543 0 0 -0.375745 0 0 
11 1 11 0.019997 0.419989 0 0 -0.00796668 -0.0090273 -0.00542416 -0.0507883 0 0 -0.312102 0 0 
12 1 12 0.0199948 0.459989 0 0 -0.022947 -0.0086785 -0.0101145 -0.0516441 0 0 -0.34367 0 0 
13 1 13 0.019991 0.49999 0 0 -0.0380597 -0.00897324 -0.0150524 -0.048049 0 0 -0.608595 0 0 
14 1 14 0.019987 0.539992 0 0 -0.0513586 -0.00846609 -0.0191537 -0.0390076 0 0 -0.771299 0 0 
15 1 15 0.0199792 0.579995 0 0 -0.0737448 -0.0130135 -0.0277879 -0.0291974 0 0 -0.868921 0 0 
16 1 16 0.0199719 0.619998 0 0 -0.0875178 -0.0170138 -0.0334863 -0.00779434 0 0 -1.50357 0 0 
17 1 17 0.0199671 0.660002 0 0 -0.1016 -0.0233713 -0.0400404 0.00329495 0 0 -1.62123 0 0 
18 1 18 0.0199677 0.700005 0 0 -0.126017 -0.0373964 -0.0523666 0.0223432 0 0 -1.81572 0 0 
19 1 19 0.0199709 0.740009 0 0 -0.13872 -0.0534341 -0.0615825 0.0349995 0 0 -1.78118 0 0 
20 1 20 0.0199764 0.78001 0 0 -0.14663 -0.0579537 -0.0655686 0.0415804 0 0 -1.1708 0 0 
21 1 21 0.0199789 0.820012 0 0 -0.1645 -0.064123 -0.0732775 0.0481543 0 0 -0.717368 0 0 
22 1 22 0.0199823 0.860013 0 0 -0.184871 -0.0786047 -0.0844593 0.0579555 0 0 -0.5093 0 0 
23 1 23 0.0199835 0.900016 0 0 -0.191986 -0.0823961 -0.0879577 0.0641551 0 0 -0.575236 0 0 
24 1 24 0.0199834 0.940018 0 0 -0.221842 -0.0718699 -0.0941683 0.0675703 0 0 -0.150866 0 0 
25 1 25 0.0199745 0.980028 0 0 -0.313783 -0.100309 -0.142785 0.0773261 0 0 -0.991128 0 0 
26 1 26 0.06 0.0199997 0 0 -0.00176882 -0.00484651 -0.00210934 -0.00431552 0 0 0.0890968 0 0 
27 1 27 0.0600021 0.0599994 0 0 0.00713115 0.00492033 0.00387254 0.0044052 0 0 -0.147611 0 0 
28 1 28 0.0600024 0.0999996 0 0 0.00807111 0.00290964 0.00353281 -0.000845381 0 0 -0.219975 0 0 
29 1 29 0.0600038 0.139999 0 0 0.0105042 0.00356431 0.00452465 0.00107579 0 0 -0.965306 0 0 
30 1 30 0.0600051 0.179998 0 0 0.0123697 -0.00950375 0.000930909 -0.00764821 0 0 -1.2142 0 0 
31 1 31 0.0600071 0.219995 0 0 0.0231431 -0.0102143 0.00415336 -0.00869574 0 0 -1.70303 0 0 
32 1 32 0.0600075 0.25999 0 0 0.0238996 -0.0260252 -0.000670677 -0.0170812 0 0 -1.62356 0 0 
33 1 33 0.0600081 0.299984 0 0 0.027075 -0.0240703 0.000976252 -0.0196323 0 0 -1.40646 0 0 
34 1 34 0.0600063 0.339978 0 0 0.016584 -0.0272685 -0.00341029 -0.0303876 0 0 -0.620683 0 0 
35 1 35 0.0600044 0.379973 0 0 0.00346566 -0.0229368 -0.00622359 -0.0295913 0 0 -0.0905763 0 0 
36 1 36 0.0600012 0.419971 0 0 -0.0127871 -0.0166914 -0.00942871 -0.0365322 0 0 0.396566 0 0 
37 1 37 0.0599991 0.45997 0 0 -0.0321273 -0.0102523 -0.0135662 -0.033913 0 0 0.827232 0 0 
38 1 38 0.0599961 0.499972 0 0 -0.0533779 0.00047053 -0.0169401 -0.0347003 0 0 0.671093 0 0 
39 1 39 0.0599956 0.539978 0 0 -0.0764751 0.00604477 -0.0225558 -0.0236476 0 0 0.432712 0 0 
40 1 40 0.0599959 0.579986 0 0 -0.0995367 0.0109711 -0.0283686 -0.0243944 0 0 0.614003 0 0 
41 1 41 0.0599985 0.619996 0 0 -0.125843 0.00585757 -0.0384418 0.00160361 0 0 0.498515 0 0 
42 1 42 0.0599995 0.660006 0 0 -0.143829 -0.00390861 -0.0473389 0.000996304 0 0 1.48213 0 0 
43 1 43 0.0599949 0.700016 0 0 -0.154299 -0.0188816 -0.0554985 0.0195164 0 0 1.87634 0 0 
44 1 44 0.0599894 0.740024 0 0 -0.161014 -0.0350819 -0.0628469 0.0285059 0 0 1.4923 0 0 
45 1 45 0.0599831 0.78003 0 0 -0.177745 -0.050201 -0.0730624 0.0341096 0 0 1.62768 0 0 
46 1 46 0.0599761 0.820035 0 0 -0.174985 -0.0465957 -0.0710178 0.0423023 0 0 0.772565 0 0 
47 1 47 0.0599698 0.860041 0 0 -0.184508 -0.0519882 -0.0758097 0.0483307 0 0 0.553699 0 0 
48 1 48 0.0599643 0.900047 0 0 -0.212179 -0.0637572 -0.0884515 0.0646906 0 0 -0.362611 0 0 
49 1 49 0.0599548 0.940057 0 0 -0.226028 -0.0123912 -0.0764244 0.0521767 0 0 -0.184375 0 0 
50 1 50 0.059934 0.980074 0 0 -0.237656 -0.0081208 -0.0787903 0.033731 0 0 -2.04202 0 0 
51 1 51 0.0999982 0.0199996 0 0 0.00322912 -0.00184228 0.000441177 -0.00164645 0 0 -0.0582729 0 0 
52 1 52 0.0999981 0.0599998 0 0 0.00959839 0.00518764 0.00474211 0.00748673 0 0 -0.620854 0 0 
53 1 53 0.100001 0.0999986 0 0 0.00108653 -0.0115053 -0.00332542 -0.000448695 0 0 -0.547335 0 0 
54 1 54 0.100004 0.139997 0 0 0.00959065 -0.0064907 0.00100696 0.00389082 0 0 -1.22145 0 0 
55 1 55 0.100007 0.179994 0 0 0.012198 -0.0235676 -0.00363317 -0.00557763 0 0 -1.53966 0 0 
56 1 56 0.10001 0.219989 0 0 0.0206929 -0.0201711 0.000175567 -0.00674202 0 0 -2.34939 0 0 
57 1 57 0.100012 0.259983 0 0 0.0167045 -0.0400221 -0.00746512 -0.0157118 0 0 -2.26673 0 0 
58 1 58 0.100011 0.299976 0 0 0.0168316 -0.0294962 -0.00404944 -0.0198262 0 0 -2.17539 0 0 
59 1 59 0.100008 0.33997 0 0 0.0019406 -0.0394162 -0.0120004 -0.0279015 0 0 -1.3881 0 0 
60 1 60 0.100002 0.379965 0 0 -0.00440624 -0.0225239 -0.00861806 -0.0241522 0 0 -0.55337 0 0 
61 1 61 0.0999952 0.419962 0 0 -0.0228217 -0.0202959 -0.0138033 -0.0286914 0 0 -0.0622774 0 0 
62 1 62 0.0999855 0.459963 0 0 -0.0462208 -0.00949132 -0.0178417 -0.0265383 0 0 0.1523 0 0 
63 1 63 0.099974 0.499967 0 0 -0.072246 0.00182212 -0.0225574 -0.0263604 0 0 -0.572337 0 0 
64 1 64 0.0999614 0.539975 0 0 -0.100942 0.014718 -0.0276197 -0.0190602 0 0 -1.16146 0 0 
65 1 65 0.0999465 0.579986 0 0 -0.124363 0.0156631 -0.034822 -0.0189184 0 0 -1.5467 0 0 
66 1 66 0.0999327 0.619999 0 0 -0.132038 0.0289623 -0.0330211 -0.00120436 0 0 -2.06876 0 0 
67 1 67 0.0999248 0.660013 0 0 -0.14785 0.0160572 -0.0422266 -0.000373377 0 0 -1.99476 0 0 
68 1 68 0.0999232 0.700026 0 0 -0.144513 0.010378 -0.042979 0.0193671 0 0 -1.80943 0 0 
69 1 69 0.0999273 0.740037 0 0 -0.149377 -0.00541078 -0.0496014 0.0249672 0 0 -1.56939 0 0 
70 1 70 0.0999293 0.780048 0 0 -0.16034 -0.0103278 -0.0546949 0.0249157 0 0 -0.874351 0 0 
71 1 71 0.0999299 0.820057 0 0 -0.183044 -0.035767 -0.0701336 0.0435516 0 0 -1.69187 0 0 
72 1 72 0.0999306 0.860066 0 0 -0.181118 -0.0173554 -0.0636185 0.037687 0 0 -0.993863 0 0 
73 1 73 0.0999259 0.900078 0 0 -0.215476 -0.0264561 -0.0775484 0.0496125 0 0 -1.40877 0 0 
74 1 74 0.0999156 0.940092 0 0 -0.208469 0.00434302 -0.0654229 0.0255401 0 0 -1.68066 0 0 
75 1 75 0.0998969 0.980107 0 0 -0.207624 -0.0205047 -0.0731261 0.0215797 0 0 -3.35254 0 0 
76 1 76 0.140002 0.0200003 0 0 0.00801405 0.00565633 0.00437933 0.00212804 0 0 0.0100326 0 0 
77 1 77 0.140004 0.0599997 0 0 0.00913248 -0.000413655 0.00279934 0.00599327 0 0 -0.57142 0 0 
78 1 78 0.140005 0.0999979 0 0 0.00612759 -0.0161335 -0.00320268 0.00237901 0 0 -0.73184 0 0 
79 1 79 0.140008 0.139995 0 0 0.0108647 -0.0157754 -0.00156585 0.00855279 0 0 -1.38526 0 0 
80 1 80 0.140012 0.17999 0 0 0.00246019 -0.0391025 -0.0117322 0.0022553 0 0 -1.7747 0 0 
81 1 81 0.140016 0.219983 0 0 0.00809896 -0.0343449 -0.0084008 -0.000314426 0 0 -2.57742 0 0 
82 1 82 0.140018 0.259976 0 0 0.00105384 -0.0510018 -0.015998 -0.00629371 0 0 -2.66032 0 0 
83 1 83 0.140017 0.299969 0 0 0.00247265 -0.0318567 -0.00940996 -0.016448 0 0 -2.36849 0 0 
84 1 84 0.140012 0.339964 0 0 -0.0146394 -0.0394042 -0.0173137 -0.0188777 0 0 -1.27582 0 0 
85 1 85 0.140005 0.37996 0 0 -0.0265341 -0.0232894 -0.015957 -0.0208679 0 0 0.00508147 0 0 
86 1 86 0.139996 0.41996 0 0 -0.053768 -0.0236982 -0.0248126 -0.0208563 0 0 0.745656 0 0 
87 1 87 0.139985 0.459961 0 0 -0.0756121 -0.0124302 -0.0282027 -0.0225616 0 0 1.19871 0 0 
88 1 88 0.139972 0.499967 0 0 -0.102434 -0.00351669 -0.0339445 -0.0183106 0 0 0.640439 0 0 
89 1 89 0.139961 0.539976 0 0 -0.124523 0.00891857 -0.0370372 -0.0182014 0 0 0.0130802 0 0 
90 1 90 0.139953 0.579988 0 0 -0.149218 0.0135019 -0.0434838 -0.0130188 0 0 -0.357242 0 0 
91 1 91 0.139951 0.620002 0 0 -0.170078 0.0124419 -0.0505148 -0.00156833 0 0 -0.159588 0 0 
92 1 92 0.139947 0.660018 0 0 -0.188928 0.0121746 -0.0566448 -0.00184085 0 0 1.01096 0 0 
93 1 93 0.139943 0.700035 0 0 -0.205975 0.000269866 -0.0659333 0.018285 0 0 1.40675 0 0 
94 1 94 0.139938 0.74005 0 0 -0.210212 -0.0116976 -0.0711308 0.0225104 0 0 1.57766 0 0 
95 1 95 0.13993 0.780064 0 0 -0.198325 -0.00428808 -0.064944 0.0182924 0 0 1.7227 0 0 
96 1 96 0.139921 0.820077 0 0 -0.204241 -0.0245018 -0.0733219 0.0333694 0 0 0.117956 0 0 
97 1 97 0.139913 0.86009 0 0 -0.207207 -0.0056094 -0.0682132 0.0260183 0 0 -0.164102 0 0 
98 1 98 0.1399 0.900105 0 0 -0.208739 -0.00699369 -0.0691416 0.027047 0 0 -1.27598 0 0 
99 1 99 0.139887 0.940119 0 0 -0.195634 0.00126147 -0.0623047 0.0187595 0 0 -2.18379 0 0 
100 1 100 0.139869 0.980134 0 0 -0.184591 -0.0054096 -0.0609016 0.0105868 0 0 -3.69956 0 0 
101 1 101 0.18 0.0200007 0 0 0.0139376 0.0139936 0.00895989 0.00608364 0 0 -0.169398 0 0 
102 1 102 0.180001 0.0600003 0 0 0.0101609 -0.00409067 0.001953 0.00582943 0 0 -0.704534 0 0 
103 1 103 0.180004 0.0999984 0 0 0.00307498 -0.0175142 -0.00462543 0.0078326 0 0 -0.773528 0 0 
104 1 104 0.180009 0.139994 0 0 -0.00112126 -0.0305365 -0.0101389 0.0110108 0 0 -1.30238 0 0 
105 1 105 0.180014 0.179988 0 0 -0.00861014 -0.04836 -0.0182475 0.00788131 0 0 -1.96213 0 0 
106 1 106 0.180017 0.219981 0 0 -0.00795929 -0.0483117 -0.0180193 0.00513851 0 0 -2.80823 0 0 
107 1 107 0.180019 0.259974 0 0 -0.0169636 -0.0514864 -0.0219244 0.000277854 0 0 -2.88344 0 0 
108 1 108 0.180017 0.299968 0 0 -0.0184953 -0.0363584 -0.0175726 -0.00867963 0 0 -2.52831 0 0 
109 1 109 0.180009 0.339965 0 0 -0.0274518 -0.0294709 -0.0182392 -0.011588 0 0 -1.47852 0 0 
110 1 110 0.179998 0.379964 0 0 -0.037507 -0.0167431 -0.0173779 -0.0131953 0 0 -0.392458 0 0 
111 1 111 0.179983 0.419965 0 0 -0.05712 -0.0112188 -0.0218874 -0.0162144 0 0 0.398746 0 0 
112 1 112 0.179965 0.45997 0 0 -0.0793096 -0.00386042 -0.0266408 -0.0174515 0 0 0.327689 0 0 
113 1 113 0.179943 0.499976 0 0 -0.105702 -0.000935126 -0.0341647 -0.0192721 0 0 -0.535201 0 0 
114 1 114 0.179921 0.539985 0 0 -0.139155 -0.003012 -0.0455537 -0.0176327 0 0 -1.61039 0 0 
115 1 115 0.179898 0.579997 0 0 -0.151504 0.0154627 -0.0435904 -0.0143629 0 0 -2.35976 0 0 
116 1 116 0.179878 0.620011 0 0 -0.171343 0.00827879 -0.0522576 -5.23765e-05 0 0 -2.86022 0 0 
117 1 117 0.179867 0.660026 0 0 -0.160955 0.0288503 -0.0423291 0.00283644 0 0 -2.57795 0 0 
118 1 118 0.179864 0.700044 0 0 -0.15742 0.0344441 -0.0394062 0.0184342 0 0 -2.08873 0 0 
119 1 119 0.179868 0.740061 0 0 -0.169594 0.0260443 -0.046001 0.0220342 0 0 -1.82078 0 0 
120 1 120 0.179871 0.780078 0 0 -0.164731 0.0262298 -0.044384 0.0209262 0 0 -1.28957 0 0 
121 1 121 0.179872 0.820093 0 0 -0.170721 0.0123278 -0.0507587 0.0275323 0 0 -1.82682 0 0 
122 1 122 0.179869 0.860109 0 0 -0.174101 0.0241572 -0.0480457 0.0145184 0 0 -1.58602 0 0 
123 1 123 0.179861 0.900125 0 0 -0.190733 -0.000370317 -0.0612423 0.0215191 0 0 -2.71762 0 0 
124 1 124 0.179852 0.94014 0 0 -0.182539 0.0117114 -0.0547612 0.00825396 0 0 -3.35667 0 0 
125 1 125 0.179837 0.980155 0 0 -0.183439 -0.00677827 -0.0609775 0.00637964 0 0 -4.33496 0 0 
126 1 126 0.220003 0.0200008 0 0 0.0107164 0.0164346 0.00870881 0.00944993 0 0 -0.119306 0 0 
127 1 127 0.220007 0.0600013 0 0 0.004958 -0.00218085 0.00090178 0.0055284 0 0 -0.66518 0 0 
128 1 128 0.220009 0.0999994 0 0 0.00150734 -0.0179097 -0.00524895 0.0118054 0 0 -0.90738 0 0 
129 1 129 0.220012 0.139995 0 0 -0.00435733 -0.0335781 -0.0121494 0.0147861 0 0 -1.40204 0 0 
130 1 130 0.220017 0.179989 0 0 -0.0211608 -0.0572244 -0.0251109 0.0135495 0 0 -1.94244 0 0 
131 1 131 0.220021 0.219982 0 0 -0.0202761 -0.0484401 -0.0220061 0.0142338 0 0 -2.61729 0 0 
132 1 132 0.220021 0.259976 0 0 -0.0270003 -0.0457807 -0.0233081 0.00640745 0 0 -2.65827 0 0 
133 1 133 0.220017 0.299973 0 0 -0.0317649 -0.026623 -0.0187014 0.00182268 0 0 -2.5208 0 0 
134 1 134 0.220008 0.339972 0 0 -0.0509746 -0.0263307 -0.0247712 -0.0050387 0 0 -1.36651 0 0 
135 1 135 0.219994 0.379973 0 0 -0.0672283 -0.00813753 -0.024149 -0.0029977 0 0 -0.203541 0 0 
136 1 136 0.219977 0.419977 0 0 -0.0959696 -0.0218231 -0.0377448 -0.00823471 0 0 0.904585 0 0 
137 1 137 0.219957 0.459982 0 0 -0.113706 -0.00741886 -0.0388139 -0.0076068 0 0 1.05941 0 0 
138 1 138 0.219937 0.499989 0 0 -0.139189 -0.0210529 -0.0513579 -0.00999357 0 0 0.550837 0 0 
139 1 139 0.219917 0.539998 0 0 -0.156639 -0.0135783 -0.0545532 -0.0100773 0 0 -0.185989 0 0 
140 1 140 0.219902 0.580008 0 0 -0.173327 -0.00827212 -0.0582037 -0.00258907 0 0 -0.959732 0 0 
141 1 141 0.219893 0.620021 0 0 -0.19296 -0.00564045 -0.063657 0.00101672 0 0 -0.476381 0 0 
142 1 142 0.219886 0.660037 0 0 -0.218305 -0.00563674 -0.0717824 0.00984238 0 0 0.222557 0 0 
143 1 143 0.21988 0.700053 0 0 -0.227362 -0.00325001 -0.0739228 0.0157912 0 0 1.20139 0 0 
144 1 144 0.219874 0.740071 0 0 -0.222777 0.0112198 -0.0678097 0.0177294 0 0 1.52608 0 0 
145 1 145 0.219868 0.78009 0 0 -0.220066 0.0117618 -0.0667648 0.016536 0 0 1.21118 0 0 
146 1 146 0.21986 0.820108 0 0 -0.216399 0.00828358 -0.066701 0.0190442 0 0 0.0378237 0 0 
147 1 147 0.21985 0.860126 0 0 -0.195538 0.0210662 -0.0559118 0.00994359 0 0 -0.64127 0 0 
148 1 148 0.219838 0.900143 0 0 -0.188873 0.00289963 -0.0595959 0.0147385 0 0 -2.30361 0 0 
149 1 149 0.219826 0.940157 0 0 -0.181544 0.00977312 -0.0550637 0.00562917 0 0 -3.20626 0 0 
150 1 150 0.21981 0.980172 0 0 -0.186063 0.00252454 -0.0588365 0.00298445 0 0 -4.23869 0 0 
151 1 151 0.260001 0.0200012 0 0 0.0102732 0.0179858 0.00906021 0.0104783 0 0 -0.236115 0 0 
152 1 152 0.260003 0.0600023 0 0 0.00544978 0.00564772 0.00356857 0.00426634 0 0 -0.817208 0 0 
153 1 153 0.260007 0.100002 0 0 -0.00888572 -0.0181939 -0.00866654 0.012518 0 0 -1.00609 0 0 
154 1 154 0.260012 0.139998 0 0 -0.0226107 -0.0386525 -0.0196216 0.0140666 0 0 -1.58286 0 0 
155 1 155 0.260015 0.179993 0 0 -0.033826 -0.0568315 -0.0290432 0.0159008 0 0 -2.08715 0 0 
156 1 156 0.260018 0.219987 0 0 -0.035319 -0.0430695 -0.0251044 0.0182543 0 0 -2.67405 0 0 
157 1 157 0.260016 0.259984 0 0 -0.0546868 -0.0458332 -0.0321965 0.00754768 0 0 -2.71209 0 0 
158 1 158 0.260009 0.299982 0 0 -0.0599124 -0.0201649 -0.0256484 0.0056379 0 0 -2.66335 0 0 
159 1 159 0.259997 0.339985 0 0 -0.0668563 -0.0125773 -0.0254468 -0.00119392 0 0 -1.65262 0 0 
160 1 160 0.25998 0.37999 0 0 -0.0656131 0.00979059 -0.0178832 0.000653929 0 0 -0.889237 0 0 
161 1 161 0.259959 0.419996 0 0 -0.0835558 -0.00102239 -0.0270997 -0.00625366 0 0 -0.0880433 0 0 
162 1 162 0.259933 0.460004 0 0 -0.0947647 0.00621561 -0.0283768 -0.0065141 0 0 -0.163974 0 0 
163 1 163 0.259905 0.500011 0 0 -0.116996 -0.0114897 -0.0411817 -0.00783185 0 0 -0.95634 0 0 
164 1 164 0.259876 0.540019 0 0 -0.132488 -0.0102607 -0.0457499 -0.0126789 0 0 -1.53618 0 0 
165 1 165 0.259846 0.580028 0 0 -0.152027 -0.0121626 -0.0526226 -0.00159753 0 0 -2.65889 0 0 
166 1 166 0.259822 0.620038 0 0 -0.157785 -0.00643531 -0.052631 0.00185625 0 0 -2.81216 0 0 
167 1 167 0.259805 0.66005 0 0 -0.142046 0.0246084 -0.0376279 0.0127087 0 0 -2.925 0 0 
168 1 168 0.259801 0.700065 0 0 -0.152161 0.0207804 -0.0420965 0.0216785 0 0 -2.41969 0 0 
169 1 169 0.259803 0.740082 0 0 -0.1513 0.0432071 -0.0346309 0.0255701 0 0 -1.90793 0 0 
170 1 170 0.259806 0.780101 0 0 -0.152369 0.0493545 -0.0330018 0.0211894 0 0 -1.31004 0 0 
171 1 171 0.259807 0.82012 0 0 -0.164242 0.0425423 -0.0389873 0.0191123 0 0 -1.63934 0 0 
172 1 172 0.259806 0.860139 0 0 -0.162383 0.0416641 -0.0386773 0.013612 0 0 -2.17521 0 0 
173 1 173 0.259801 0.900157 0 0 -0.165295 0.0198748 -0.0465924 0.0135447 0 0 -3.1691 0 0 
174 1 174 0.259792 0.940173 0 0 -0.172797 0.0234663 -0.0478676 0.002363 0 0 -3.5578 0 0 
175 1 175 0.259778 0.980189 0 0 -0.186064 0.0027924 -0.0587481 0.00446601 0 0 -4.43239 0 0 
176 1 176 0.300004 0.0200016 0 0 0.0057489 0.0193814 0.00805697 0.0111686 0 0 0.00340152 0 0 
177 1 177 0.300008 0.060003 0 0 -0.00177155 0.00605973 0.0013843 0.0055889 0 0 -0.516506 0 0 
178 1 178 0.300009 0.100003 0 0 -0.0118938 -0.0127216 -0.00787584 0.00987347 0 0 -1.13636 0 0 
179 1 179 0.300012 0.140001 0 0 -0.0303629 -0.0377215 -0.0218059 0.0121048 0 0 -1.84462 0 0 
180 1 180 0.300015 0.179997 0 0 -0.0402666 -0.0406627 -0.0259245 0.0153893 0 0 -2.13483 0 0 
181 1 181 0.300015 0.219994 0 0 -0.058652 -0.0448437 -0.0331536 0.014032 0 0 -2.73606 0 0 
182 1 182 0.300011 0.259993 0 0 -0.0705567 -0.0302978 -0.0323041 0.00454491 0 0 -2.88446 0 0 
183 1 183 0.300001 0.299995 0 0 -0.0750052 -0.0094241 -0.0270401 0.00670161 0 0 -2.84832 0 0 
184 1 184 0.299988 0.34 0 0 -0.0857087 0.0033738 -0.0263704 -0.00167124 0 0 -1.80605 0 0 
185 1 185 0.299969 0.380008 0 0 -0.10288 0.00409357 -0.0316471 0.000587653 0 0 -1.17071 0 0 
186 1 186 0.299947 0.420017 0 0 -0.117466 -0.00169288 -0.0381826 -0.00672702 0 0 -0.160196 0 0 
187 1 187 0.299923 0.460025 0 0 -0.129952 -0.00570196 -0.0434777 -0.00707974 0 0 0.283943 0 0 
188 1 188 0.299897 0.500033 0 0 -0.151052 -0.0291155 -0.0577551 -0.00601716 0 0 -0.109516 0 0 
189 1 189 0.299873 0.54004 0 0 -0.156673 -0.0276865 -0.0590942 -0.0101618 0 0 -0.176873 0 0 
190 1 190 0.299852 0.580047 0 0 -0.168627 -0.0357862 -0.0655217 0.00022592 0 0 -0.889281 0 0 
191 1 191 0.299839 0.620055 0 0 -0.191301 -0.0345521 -0.0723976 0.00332569 0 0 -0.397543 0 0 
192 1 192 0.299828 0.660066 0 0 -0.213261 -0.0278128 -0.0772783 0.0154007 0 0 0.117202 0 0 
193 1 193 0.299819 0.70008 0 0 -0.22087 -0.00992031 -0.0739788 0.0172855 0 0 1.2196 0 0 
194 1 194 0.299809 0.740096 0 0 -0.230343 -0.00393637 -0.0750978 0.0280902 0 0 1.30658 0 0 
195 1 195 0.299803 0.780114 0 0 -0.217674 0.0198564 -0.0634008 0.0257213 0 0 1.276 0 0 
196 1 196 0.299795 0.820134 0 0 -0.204005 0.0255208 -0.0571963 0.0220685 0 0 0.630838 0 0 
197 1 197 0.299788 0.860153 0 0 -0.191461 0.0266584 -0.0528147 0.0211864 0 0 -0.71713 0 0 
198 1 198 0.299778 0.900172 0 0 -0.190588 0.0207874 -0.0544128 0.013973 0 0 -2.11349 0 0 
199 1 199 0.299765 0.940189 0 0 -0.191285 0.0208244 -0.0546416 0.00176061 0 0 -2.94367 0 0 
200 1 200 0.299749 0.980206 0 0 -0.197005 0.00355088 -0.0620115 0.00735596 0 0 -4.16172 0 0 
201 1 201 0.340001 0.0200017 0 0 0.00752861 0.0218409 0.0094153 0.00727023 0 0 -0.0720539 0 0 
202 1 202 0.340002 0.0600035 0 0 -0.00602328 0.00379259 -0.000704786 0.00190204 0 0 -0.769703 0 0 
203 1 203 0.340004 0.100004 0 0 -0.0232244 -0.0112601 -0.0110391 0.00276954 0 0 -1.42465 0 0 
204 1 204 0.340007 0.140003 0 0 -0.0449048 -0.0346342 -0.0254775 0.00784454 0 0 -2.12706 0 0 
205 1 205 0.340008 0.180002 0 0 -0.0535578 -0.0288038 -0.0263845 0.00839545 0 0 -2.48891 0 0 
206 1 206 0.340006 0.220001 0 0 -0.0803515 -0.0399541 -0.0385455 0.00450021 0 0 -2.9395 0 0 
207 1 207 0.339998 0.260003 0 0 -0.0888152 -0.0141127 -0.0329711 -0.000444588 0 0 -2.80667 0 0 
208 1 208 0.339986 0.300009 0 0 -0.100398 -0.000400764 -0.0322872 0.000323636 0 0 -2.91789 0 0 
209 1 209 0.339969 0.340018 0 0 -0.109686 0.00569436 -0.0333127 -0.00761722 0 0 -2.34505 0 0 
210 1 210 0.339948 0.380028 0 0 -0.104697 0.0227054 -0.02626 -0.00561247 0 0 -2.15237 0 0 
211 1 211 0.339924 0.420039 0 0 -0.112065 0.00808008 -0.0333134 -0.0105645 0 0 -1.72063 0 0 
212 1 212 0.339895 0.460049 0 0 -0.105397 0.0118714 -0.0299656 -0.0131719 0 0 -1.52712 0 0 
213 1 213 0.339865 0.500058 0 0 -0.1137 -0.011425 -0.0401 -0.0135588 0 0 -1.98714 0 0 
214 1 214 0.339833 0.540065 0 0 -0.115307 -0.0113506 -0.0405879 -0.0164942 0 0 -1.91532 0 0 
215 1 215 0.339801 0.580071 0 0 -0.125347 -0.026474 -0.0486547 -0.00575201 0 0 -2.49781 0 0 
216 1 216 0.339772 0.620077 0 0 -0.116856 -0.0039065 -0.0386981 -0.00172975 0 0 -2.46187 0 0 
217 1 217 0.339751 0.660086 0 0 -0.11493 0.00456062 -0.0353646 0.0190739 0 0 -2.99424 0 0 
218 1 218 0.339742 0.700097 0 0 -0.111619 0.0332442 -0.0251084 0.0207037 0 0 -2.37717 0 0 
219 1 219 0.33974 0.740112 0 0 -0.1214 0.0483756 -0.0233919 0.030079 0 0 -1.82803 0 0 
220 1 220 0.339742 0.78013 0 0 -0.139974 0.0505266 -0.0286548 0.0319086 0 0 -1.20567 0 0 
221 1 221 0.339744 0.820149 0 0 -0.15184 0.0503878 -0.0325003 0.0293084 0 0 -1.22659 0 0 
222 1 222 0.339744 0.860169 0 0 -0.160366 0.0418297 -0.0379849 0.0283157 0 0 -1.84928 0 0 
223 1 223 0.33974 0.900187 0 0 -0.171146 0.0361967 -0.043243 0.0169636 0 0 -2.5717 0 0 
224 1 224 0.339729 0.940206 0 0 -0.180539 0.0256459 -0.0496503 0.0036744 0 0 -3.16565 0 0 
225 1 225 0.339715 0.980223 0 0 -0.186069 0.0115567 -0.055935 0.0062632 0 0 -4.00043 0 0 
226 1 226 0.380002 0.0200009 0 0 -0.00516081 0.00856385 0.00109897 0.00207126 0 0 0.152539 0 0 
227 1 227 0.380005 0.0600021 0 0 -0.0181895 -0.00173568 -0.00637262 -0.000898865 0 0 -0.47268 0 0 
228 1 228 0.380004 0.100003 0 0 -0.0276411 -0.00803157 -0.0114198 -0.00525418 0 0 -1.40374 0 0 
229 1 229 0.380003 0.140004 0 0 -0.0502234 -0.0235794 -0.0236392 0.000757784 0 0 -2.36402 0 0 
230 1 230 0.380001 0.180005 0 0 -0.0706321 -0.0212432 -0.0294349 -0.00188187 0 0 -2.69481 0 0 
231 1 231 0.379995 0.220007 0 0 -0.0993122 -0.0244355 -0.0396528 -0.00612709 0 0 -2.97154 0 0 
232 1 232 0.379984 0.260013 0 0 -0.112054 -0.00321817 -0.0369338 -0.00694261 0 0 -2.93558 0 0 
233 1 233 0.379969 0.300022 0 0 -0.127894 0.00567721 -0.0391586 -0.00874973 0 0 -3.15709 0 0 
234 1 234 0.379951 0.340033 0 0 -0.141382 0.00713279 -0.0430178 -0.00938306 0 0 -2.76694 0 0 
235 1 235 0.37993 0.380046 0 0 -0.139292 0.018751 -0.0386197 -0.0064348 0 0 -2.51405 0 0 
236 1 236 0.379907 0.420059 0 0 -0.150248 0.00144804 -0.047681 -0.013053 0 0 -1.96605 0 0 
237 1 237 0.379882 0.460069 0 0 -0.156804 -0.0120056 -0.0540979 -0.0106399 0 0 -1.50478 0 0 
238 1 238 0.379857 0.500078 0 0 -0.160463 -0.0286309 -0.0606061 -0.0129162 0 0 -1.24168 0 0 
239 1 239 0.379832 0.540085 0 0 -0.158721 -0.0326827 -0.0613451 -0.0134341 0 0 -0.869472 0 0 
240 1 240 0.379811 0.580091 0 0 -0.163893 -0.0491087 -0.0682742 -0.00299281 0 0 -1.18651 0 0 
241 1 241 0.379794 0.620097 0 0 -0.171759 -0.0336683 -0.0658502 -0.0050687 0 0 -0.280989 0 0 
242 1 242 0.379778 0.660106 0 0 -0.204284 -0.0422255 -0.0790261 0.0130216 0 0 -9.55514e-05 0 0 
243 1 243 0.379764 0.700116 0 0 -0.217875 -0.0232743 -0.077306 0.0157621 0 0 0.955694 0 0 
244 1 244 0.37975 0.740131 0 0 -0.222465 -0.00626494 -0.0733192 0.0277399 0 0 1.16568 0 0 
245 1 245 0.379741 0.780148 0 0 -0.212665 0.0153061 -0.0632574 0.0283002 0 0 1.37898 0 0 
246 1 246 0.379733 0.820167 0 0 -0.206337 0.0183879 -0.060239 0.0306257 0 0 0.864881 0 0 
247 1 247 0.379725 0.860186 0 0 -0.201971 0.0234157 -0.0572346 0.0256555 0 0 -0.238608 0 0 
248 1 248 0.379715 0.900205 0 0 -0.201393 0.0210027 -0.0578205 0.0129345 0 0 -1.44044 0 0 
249 1 249 0.379701 0.940222 0 0 -0.204037 0.00569398 -0.0635882 0.000732653 0 0 -2.571 0 0 
250 1 250 0.379685 0.980238 0 0 -0.207599 0.00377671 -0.0653366 0.000264746 0 0 -3.29036 0 0 
251 1 251 0.419999 0.02 0 0 -0.00800287 -0.00448531 -0.00399186 -0.00333978 0 0 -0.0619252 0 0 
252 1 252 0.419997 0.0600002 0 0 -0.0213862 -0.00560866 -0.00863649 -0.00453041 0 0 -0.905609 0 0 
253 1 253 0.419996 0.100001 0 0 -0.0423169 -0.012022 -0.0174011 -0.0141249 0 0 -1.59222 0 0 
254 1 254 0.419994 0.140003 0 0 -0.0654818 -0.0192408 -0.0271404 -0.00857937 0 0 -2.44759 0 0 
255 1 255 0.419989 0.180006 0 0 -0.0828947 -0.00805575 -0.0291398 -0.0150101 0 0 -2.75946 0 0 
256 1 256 0.419978 0.220013 0 0 -0.111698 -0.0072967 -0.0381307 -0.020337 0 0 -2.98604 0 0 
257 1 257 0.419963 0.260022 0 0 -0.130206 0.010663 -0.0383056 -0.0194713 0 0 -2.96404 0 0 
258 1 258 0.419944 0.300034 0 0 -0.150973 0.00856036 -0.0456378 -0.0212385 0 0 -3.04379 0 0 
259 1 259 0.419923 0.340048 0 0 -0.155495 0.0224614 -0.0426309 -0.0191682 0 0 -2.94882 0 0 
260 1 260 0.419901 0.380064 0 0 -0.160507 0.0146887 -0.046727 -0.0135871 0 0 -3.29047 0 0 
261 1 261 0.419877 0.420077 0 0 -0.150209 0.0103895 -0.0448036 -0.0194897 0 0 -3.3535 0 0 
262 1 262 0.419851 0.46009 0 0 -0.133654 0.00785745 -0.0403067 -0.0166418 0 0 -3.42491 0 0 
263 1 263 0.419823 0.5001 0 0 -0.128344 -0.0132607 -0.045377 -0.0176604 0 0 -3.47843 0 0 
264 1 264 0.419792 0.540107 0 0 -0.116121 -0.0076241 -0.039649 -0.022006 0 0 -2.78214 0 0 
265 1 265 0.41976 0.580114 0 0 -0.126418 -0.0302774 -0.0502148 -0.00980635 0 0 -2.92338 0 0 
266 1 266 0.419729 0.620119 0 0 -0.103393 0.000656645 -0.0329208 -0.00854164 0 0 -2.59607 0 0 
267 1 267 0.419704 0.660127 0 0 -0.0906678 0.00936372 -0.0260495 0.0128715 0 0 -3.10805 0 0 
268 1 268 0.419691 0.700138 0 0 -0.0811263 0.0450244 -0.0115612 0.0169037 0 0 -2.5757 0 0 
269 1 269 0.419683 0.740152 0 0 -0.102041 0.0440549 -0.0185717 0.0317407 0 0 -2.14948 0 0 
270 1 270 0.419681 0.780168 0 0 -0.126259 0.0481649 -0.0250199 0.0349059 0 0 -1.45749 0 0 
271 1 271 0.419681 0.820186 0 0 -0.147066 0.0428457 -0.0333943 0.0361646 0 0 -1.2744 0 0 
272 1 272 0.41968 0.860204 0 0 -0.170269 0.0300874 -0.0449316 0.0284861 0 0 -1.52422 0 0 
273 1 273 0.419675 0.900221 0 0 -0.183836 0.0215615 -0.0520148 0.0171097 0 0 -2.27608 0 0 
274 1 274 0.419664 0.940238 0 0 -0.194289 0.00244053 -0.0615079 0.00231605 0 0 -2.88851 0 0 
275 1 275 0.419649 0.980253 0 0 -0.207094 0.00597692 -0.0644695 -0.00287173 0 0 -2.92641 0 0 
276 1 276 0.46 0.0199989 0 0 -0.0235591 -0.0240799 -0.0152577 -0.00932303 0 0 -0.0466619 0 0 
277 1 277 0.459998 0.0599974 0 0 -0.0383642 -0.0203627 -0.0188058 -0.00872365 0 0 -0.947564 0 0 
278 1 278 0.459993 0.0999982 0 0 -0.0429858 -0.0105779 -0.0171534 -0.0205405 0 0 -1.63536 0 0 
279 1 279 0.459985 0.140001 0 0 -0.0636687 -0.00721326 -0.0227058 -0.0181656 0 0 -2.50213 0 0 
280 1 280 0.459976 0.180007 0 0 -0.0938465 0.00618441 -0.0280863 -0.0265731 0 0 -2.63996 0 0 
281 1 281 0.45996 0.220016 0 0 -0.128537 0.00458648 -0.0397188 -0.0314195 0 0 -2.71145 0 0 
282 1 282 0.459941 0.260029 0 0 -0.149322 0.0220113 -0.0407958 -0.0296818 0 0 -2.63151 0 0 
283 1 283 0.459919 0.300044 0 0 -0.175963 0.011151 -0.0528194 -0.027967 0 0 -2.79007 0 0 
284 1 284 0.459897 0.34006 0 0 -0.180395 0.0219235 -0.0507863 -0.0240892 0 0 -3.11484 0 0 
285 1 285 0.459875 0.380076 0 0 -0.194145 0.0092454 -0.059259 -0.0203831 0 0 -3.36679 0 0 
286 1 286 0.459854 0.420091 0 0 -0.205159 -0.00967509 -0.0688591 -0.0180177 0 0 -3.38696 0 0 
287 1 287 0.459833 0.460105 0 0 -0.197835 -0.0100416 -0.0666305 -0.0161441 0 0 -2.87771 0 0 
288 1 288 0.459811 0.500116 0 0 -0.204332 -0.0393048 -0.0781045 -0.0135606 0 0 -2.52255 0 0 
289 1 289 0.459789 0.540125 0 0 -0.180782 -0.031611 -0.0680779 -0.0105014 0 0 -1.99105 0 0 
290 1 290 0.459769 0.580133 0 0 -0.167052 -0.0390727 -0.0660662 -0.00362828 0 0 -1.70888 0 0 
291 1 291 0.459751 0.62014 0 0 -0.17482 -0.0289872 -0.0653268 -0.00534349 0 0 -0.824113 0 0 
292 1 292 0.459733 0.66015 0 0 -0.209344 -0.0430801 -0.0809221 0.00920828 0 0 -0.398955 0 0 
293 1 293 0.459714 0.700161 0 0 -0.226844 -0.0247042 -0.0806411 0.0101401 0 0 0.528966 0 0 
294 1 294 0.459695 0.740175 0 0 -0.23506 -0.0191352 -0.0814868 0.0243519 0 0 0.587921 0 0 
295 1 295 0.459681 0.78019 0 0 -0.230209 -0.00818627 -0.0764224 0.02933 0 0 0.792737 0 0 
296 1 296 0.45967 0.820207 0 0 -0.229065 -0.00387716 -0.0746717 0.0351658 0 0 0.351588 0 0 
297 1 297 0.45966 0.860223 0 0 -0.229575 -0.00644779 -0.0756672 0.0241069 0 0 -0.238777 0 0 
298 1 298 0.459649 0.900239 0 0 -0.225311 -0.00970897 -0.0753453 0.0212611 0 0 -1.46475 0 0 
299 1 299 0.459636 0.940254 0 0 -0.224576 -0.0145371 -0.0766664 0.00374723 0 0 -2.15782 0 0 
300 1 300 0.459617 0.98027 0 0 -0.232881 -0.00464188 -0.0761462 -0.00616319 0 0 -2.04299 0 0 
301 1 301 0.499996 0.019998 0 0 -0.0208333 -0.0345276 -0.0177335 -0.0149408 0 0 -0.417909 0 0 
302 1 302 0.499989 0.0599952 0 0 -0.0352244 -0.0255718 -0.0194704 -0.0143449 0 0 -1.39561 0 0 
303 1 303 0.499983 0.0999957 0 0 -0.0570279 -0.0145827 -0.022939 -0.0247854 0 0 -1.53635 0 0 
304 1 304 0.499973 0.139999 0 0 -0.0796987 -0.00388665 -0.0267781 -0.0276432 0 0 -2.15233 0 0 
305 1 305 0.499958 0.180007 0 0 -0.0998277 0.0183549 -0.0261029 -0.0386884 0 0 -2.30883 0 0 
306 1 306 0.499937 0.220019 0 0 -0.126547 0.0236066 -0.0329835 -0.0430722 0 0 -2.59878 0 0 
307 1 307 0.499913 0.260035 0 0 -0.150304 0.0341681 -0.0372114 -0.0442191 0 0 -2.52181 0 0 
308 1 308 0.499887 0.300052 0 0 -0.181988 0.0219358 -0.0512906 -0.041581 0 0 -2.50826 0 0 
309 1 309 0.499863 0.34007 0 0 -0.196695 0.0185678 -0.0570863 -0.0339217 0 0 -3.01434 0 0 
310 1 310 0.499839 0.380087 0 0 -0.198415 0.0144491 -0.0589563 -0.03093 0 0 -3.31037 0 0 
311 1 311 0.499817 0.420104 0 0 -0.188737 0.00980729 -0.0573418 -0.0243224 0 0 -4.13104 0 0 
312 1 312 0.499794 0.460119 0 0 -0.168346 0.010682 -0.0505278 -0.0218811 0 0 -4.56378 0 0 
313 1 313 0.499771 0.500133 0 0 -0.15142 0.00421465 -0.0471777 -0.0223072 0 0 -4.36324 0 0 
314 1 314 0.499745 0.540145 0 0 -0.14136 0.00491598 -0.0437231 -0.0162316 0 0 -3.69107 0 0 
315 1 315 0.499716 0.580155 0 0 -0.145959 -0.0131494 -0.0509877 -0.00869742 0 0 -3.15414 0 0 
316 1 316 0.499685 0.620164 0 0 -0.117947 0.0113803 -0.0341437 -0.00511859 0 0 -2.73314 0 0 
317 1 317 0.499658 0.660175 0 0 -0.0969748 0.0181736 -0.0252437 0.0140108 0 0 -3.28742 0 0 
318 1 318 0.499639 0.700186 0 0 -0.0839399 0.0441737 -0.0127341 0.0174259 0 0 -3.02966 0 0 
319 1 319 0.499627 0.7402 0 0 -0.104712 0.0355369 -0.0221572 0.0338783 0 0 -2.96277 0 0 
320 1 320 0.499621 0.780214 0 0 -0.134361 0.0302906 -0.0333469 0.0336606 0 0 -2.31124 0 0 
321 1 321 0.499617 0.820229 0 0 -0.164372 0.0179098 -0.0469348 0.0394924 0 0 -2.08857 0 0 
322 1 322 0.499614 0.860244 0 0 -0.191541 0.000622516 -0.0611969 0.0293264 0 0 -1.82907 0 0 
323 1 323 0.499607 0.900259 0 0 -0.207022 -0.00484679 -0.0679155 0.0294049 0 0 -2.43441 0 0 