ITEM: TIMESTEP
0
ITEM: NUMBER OF ATOMS
6875
ITEM: BOX BOUNDS sm sm sm
0 4
0 2
0 0
ITEM: ATOMS id type tag x y z damage s11 s22 s33 s12 s13 s23 vx T ienergy 
1 1 1 0.019995 0.0199964 0 0 -0.0887018 -0.0904758 -0.0574272 -0.0321605 0 0 -0.155209 0 0 
2 1 2 0.0199889 0.0599904 0 0 -0.160366 -0.0937452 -0.0814556 -0.0473723 0 0 -0.0027882 0 0 
3 1 3 0.0199865 0.0999891 0 0 -0.194888 -0.100604 -0.0947351 -0.0507175 0 0 0.0466644 0 0 
4 1 4 0.0199855 0.139987 0 0 -0.224537 -0.108349 -0.106737 -0.0583809 0 0 0.152642 0 0 
5 1 5 0.019983 0.179989 0 0 -0.25297 -0.110404 -0.116522 -0.0526863 0 0 -0.0326432 0 0 
6 1 6 0.0199816 0.21999 0 0 -0.275046 -0.117086 -0.125753 -0.0458097 0 0 0.00822691 0 0 
7 1 7 0.0199806 0.259993 0 0 -0.281627 -0.114698 -0.127099 -0.030929 0 0 -0.0157823 0 0 
8 1 8 0.0199814 0.299996 0 0 -0.275746 -0.109595 -0.123569 -0.01826 0 0 0.0712991 0 0 
9 1 9 0.0199817 0.339999 0 0 -0.264941 -0.110293 -0.120323 -0.00310229 0 0 -0.0966084 0 0 
10 1 10 0.0199827 0.38 0 0 -0.260427 -0.114166 -0.120116 0.000142215 0 0 -0.0317146 0 0 
11 1 11 0.0199826 0.420002 0 0 -0.251719 -0.118236 -0.118626 0.00954678 0 0 -0.180331 0 0 
12 1 12 0.0199827 0.460001 0 0 -0.249522 -0.119338 -0.118277 0.000319727 0 0 -0.135819 0 0 
13 1 13 0.0199803 0.500002 0 0 -0.251736 -0.120171 -0.119255 0.00671055 0 0 -0.464548 0 0 
14 1 14 0.0199783 0.540001 0 0 -0.245547 -0.117375 -0.116373 0.00066877 0 0 -0.583286 0 0 
15 1 15 0.0199721 0.580001 0 0 -0.245399 -0.116036 -0.115897 0.00338965 0 0 -0.868847 0 0 
16 1 16 0.019967 0.62 0 0 -0.241976 -0.112706 -0.11373 0.00135842 0 0 -1.3939 0 0 
17 1 17 0.019964 0.660001 0 0 -0.234651 -0.110509 -0.110675 0.00596078 0 0 -1.54111 0 0 
18 1 18 0.0199663 0.700001 0 0 -0.234949 -0.100558 -0.107577 0.00174281 0 0 -1.38461 0 0 
19 1 19 0.019969 0.740003 0 0 -0.238196 -0.107422 -0.110822 0.0164873 0 0 -1.14097 0 0 
20 1 20 0.0199748 0.780003 0 0 -0.229808 -0.0965862 -0.104651 0.0138191 0 0 -0.597988 0 0 
21 1 21 0.0199758 0.820007 0 0 -0.245177 -0.102537 -0.111492 0.025381 0 0 -0.0196033 0 0 
22 1 22 0.0199805 0.860008 0 0 -0.243307 -0.101007 -0.110402 0.0361781 0 0 0.125223 0 0 
23 1 23 0.0199794 0.900013 0 0 -0.260636 -0.0920265 -0.113081 0.0420834 0 0 0.744236 0 0 
24 1 24 0.0199818 0.940015 0 0 -0.266137 -0.114079 -0.121934 0.0748928 0 0 -0.245385 0 0 
25 1 25 0.0199741 0.980026 0 0 -0.308846 -0.0591125 -0.127975 0.0515568 0 0 0.330352 0 0 
26 1 26 0.0599914 0.0199919 0 0 -0.0940661 -0.151737 -0.0787955 -0.0423327 0 0 0.00589173 0 0 
27 1 27 0.0599775 0.0599772 0 0 -0.134567 -0.124024 -0.0828968 -0.0420511 0 0 0.511649 0 0 
28 1 28 0.0599676 0.0999712 0 0 -0.173135 -0.108541 -0.0903005 -0.0365391 0 0 0.377435 0 0 
29 1 29 0.0599606 0.139967 0 0 -0.208516 -0.109334 -0.101907 -0.0516316 0 0 0.627475 0 0 
30 1 30 0.0599524 0.179969 0 0 -0.234624 -0.08756 -0.103303 -0.0437003 0 0 0.31927 0 0 
31 1 31 0.0599482 0.219972 0 0 -0.265133 -0.0964338 -0.115945 -0.0399082 0 0 0.582916 0 0 
32 1 32 0.0599447 0.259979 0 0 -0.276714 -0.0820652 -0.115051 -0.0253917 0 0 0.481172 0 0 
33 1 33 0.0599456 0.299986 0 0 -0.286774 -0.0895275 -0.120672 -0.0174567 0 0 0.66407 0 0 
34 1 34 0.0599473 0.339994 0 0 -0.279015 -0.0914646 -0.118803 -0.00414096 0 0 0.318883 0 0 
35 1 35 0.0599507 0.379998 0 0 -0.267562 -0.108292 -0.120526 -0.00806507 0 0 0.300367 0 0 
36 1 36 0.0599532 0.420001 0 0 -0.249119 -0.106768 -0.114115 0.00540569 0 0 0.01641 0 0 
37 1 37 0.0599564 0.46 0 0 -0.247698 -0.125894 -0.119802 -0.0111935 0 0 0.41858 0 0 
38 1 38 0.0599563 0.500001 0 0 -0.242176 -0.10834 -0.112394 4.9748e-05 0 0 0.366538 0 0 
39 1 39 0.0599612 0.54 0 0 -0.251238 -0.127496 -0.121452 -0.00386649 0 0 0.519252 0 0 
40 1 40 0.0599655 0.58 0 0 -0.245912 -0.107095 -0.113193 -0.00299145 0 0 1.05959 0 0 
41 1 41 0.0599725 0.62 0 0 -0.248146 -0.118703 -0.117637 0.00305604 0 0 1.02531 0 0 
42 1 42 0.0599753 0.660002 0 0 -0.246198 -0.102325 -0.111754 0.00153965 0 0 1.83473 0 0 
43 1 43 0.0599731 0.700004 0 0 -0.250365 -0.102254 -0.11307 0.00182863 0 0 1.74695 0 0 
44 1 44 0.0599683 0.740009 0 0 -0.242658 -0.0808326 -0.10372 0.0148735 0 0 2.07461 0 0 
45 1 45 0.0599652 0.780013 0 0 -0.25493 -0.102703 -0.114678 0.0165816 0 0 2.04488 0 0 
46 1 46 0.0599596 0.820018 0 0 -0.230992 -0.0579461 -0.0926289 0.0179813 0 0 2.38932 0 0 
47 1 47 0.0599556 0.860025 0 0 -0.264806 -0.0971281 -0.116063 0.0344902 0 0 1.59452 0 0 
48 1 48 0.0599506 0.900032 0 0 -0.233556 -0.0355332 -0.0862556 0.0212828 0 0 1.9852 0 0 
49 1 49 0.0599451 0.940046 0 0 -0.295352 -0.049831 -0.110685 0.0643663 0 0 0.546944 0 0 
50 1 50 0.0599307 0.980064 0 0 -0.239604 0.0186118 -0.0708408 -0.00556291 0 0 1.17033 0 0 
51 1 51 0.0999866 0.0199904 0 0 -0.0931946 -0.167525 -0.0835939 -0.053399 0 0 -0.0889039 0 0 
52 1 52 0.0999633 0.0599724 0 0 -0.120527 -0.151486 -0.0872097 -0.0520429 0 0 0.372378 0 0 
53 1 53 0.0999472 0.0999613 0 0 -0.152256 -0.118892 -0.0869246 -0.0381784 0 0 0.414099 0 0 
54 1 54 0.099935 0.139956 0 0 -0.197188 -0.11393 -0.0997502 -0.0529367 0 0 0.829831 0 0 
55 1 55 0.0999212 0.179956 0 0 -0.213008 -0.0727888 -0.0916286 -0.0424114 0 0 0.358381 0 0 
56 1 56 0.0999122 0.219961 0 0 -0.244552 -0.0833863 -0.105153 -0.0389563 0 0 0.651451 0 0 
57 1 57 0.0999056 0.259969 0 0 -0.257143 -0.0600233 -0.101698 -0.028263 0 0 0.493208 0 0 
58 1 58 0.0999048 0.299978 0 0 -0.275643 -0.0788291 -0.11367 -0.0177256 0 0 0.621913 0 0 
59 1 59 0.0999079 0.339986 0 0 -0.267766 -0.0744251 -0.109728 -0.00636406 0 0 0.275502 0 0 
60 1 60 0.0999138 0.379992 0 0 -0.264514 -0.103908 -0.118145 -0.00800754 0 0 0.202716 0 0 
61 1 61 0.0999186 0.419996 0 0 -0.246313 -0.0938757 -0.10908 -0.00318978 0 0 0.00810822 0 0 
62 1 62 0.0999212 0.459997 0 0 -0.25186 -0.126603 -0.121369 -0.0149467 0 0 -0.0271705 0 0 
63 1 63 0.0999191 0.499998 0 0 -0.23051 -0.0957693 -0.104618 -0.0113782 0 0 -0.0794818 0 0 
64 1 64 0.0999169 0.539998 0 0 -0.243739 -0.119978 -0.116632 -0.00670245 0 0 -0.372787 0 0 
65 1 65 0.099911 0.579999 0 0 -0.227328 -0.0924326 -0.102522 -0.0111495 0 0 -0.242281 0 0 
66 1 66 0.0999053 0.62 0 0 -0.237256 -0.106354 -0.110179 0.00275022 0 0 -1.49689 0 0 
67 1 67 0.0999028 0.660003 0 0 -0.227643 -0.0804764 -0.0987868 -0.00729331 0 0 -1.284 0 0 
68 1 68 0.0999018 0.700007 0 0 -0.240923 -0.088775 -0.105713 0.00238119 0 0 -1.53815 0 0 
69 1 69 0.0999055 0.740013 0 0 -0.22841 -0.0566084 -0.0913756 0.0067456 0 0 -0.372394 0 0 
70 1 70 0.0999095 0.78002 0 0 -0.241128 -0.0738015 -0.100975 0.0144594 0 0 0.70856 0 0 
71 1 71 0.0999114 0.820028 0 0 -0.232501 -0.0479357 -0.0899049 0.0120743 0 0 1.82183 0 0 
72 1 72 0.0999115 0.860038 0 0 -0.241008 -0.0584105 -0.0960031 0.0209789 0 0 2.01211 0 0 
73 1 73 0.0999082 0.90005 0 0 -0.258857 -0.0304988 -0.0927635 0.0143876 0 0 2.17744 0 0 
74 1 74 0.0999007 0.940067 0 0 -0.242724 0.00567028 -0.0759858 0.0104633 0 0 1.10243 0 0 
75 1 75 0.0998915 0.980084 0 0 -0.226361 -0.0153967 -0.0774988 0.00165985 0 0 1.00968 0 0 
76 1 76 0.139987 0.0199896 0 0 -0.0950676 -0.175392 -0.0867163 -0.0605393 0 0 0.223087 0 0 
77 1 77 0.13996 0.05997 0 0 -0.113573 -0.162841 -0.0886208 -0.0580532 0 0 0.865422 0 0 
78 1 78 0.139937 0.0999559 0 0 -0.134757 -0.13077 -0.0851303 -0.0480463 0 0 0.81178 0 0 
79 1 79 0.139915 0.139948 0 0 -0.168918 -0.10769 -0.0886817 -0.0594442 0 0 1.22213 0 0 
80 1 80 0.139895 0.179947 0 0 -0.19501 -0.0751142 -0.0866005 -0.0495679 0 0 0.827527 0 0 
81 1 81 0.139881 0.219951 0 0 -0.238319 -0.0812833 -0.102478 -0.0489385 0 0 1.03322 0 0 
82 1 82 0.139871 0.259958 0 0 -0.258783 -0.06419 -0.103561 -0.0361381 0 0 0.931015 0 0 
83 1 83 0.139868 0.299967 0 0 -0.274912 -0.078491 -0.113329 -0.0207187 0 0 1.26411 0 0 
84 1 84 0.139872 0.339975 0 0 -0.27628 -0.0809241 -0.11455 -0.0101815 0 0 1.02603 0 0 
85 1 85 0.13988 0.379981 0 0 -0.274201 -0.101101 -0.120355 -0.00592061 0 0 0.717824 0 0 
86 1 86 0.139888 0.419986 0 0 -0.260651 -0.0995882 -0.115516 -0.00871657 0 0 0.675456 0 0 
87 1 87 0.139893 0.459988 0 0 -0.260215 -0.112473 -0.119513 -0.0159789 0 0 0.766111 0 0 
88 1 88 0.139896 0.49999 0 0 -0.249517 -0.106821 -0.114265 -0.0154739 0 0 1.12945 0 0 
89 1 89 0.139899 0.539991 0 0 -0.254557 -0.107909 -0.116231 -0.0138118 0 0 1.23752 0 0 
90 1 90 0.139904 0.579994 0 0 -0.249122 -0.0991986 -0.111689 -0.00941295 0 0 1.61202 0 0 
91 1 91 0.13991 0.619997 0 0 -0.252756 -0.101224 -0.113508 -0.00558214 0 0 1.40743 0 0 
92 1 92 0.139912 0.660002 0 0 -0.253295 -0.0821766 -0.107566 -0.00792676 0 0 1.84776 0 0 
93 1 93 0.139908 0.700007 0 0 -0.249117 -0.0834829 -0.106647 -0.00595299 0 0 1.7535 0 0 
94 1 94 0.139902 0.740015 0 0 -0.245356 -0.0600504 -0.0979198 0.00123343 0 0 2.5233 0 0 
95 1 95 0.139898 0.780024 0 0 -0.242595 -0.0520557 -0.0944712 0.00110151 0 0 2.9881 0 0 
96 1 96 0.139892 0.820036 0 0 -0.231352 -0.0393928 -0.0867975 0.00346986 0 0 3.39476 0 0 
97 1 97 0.139886 0.860047 0 0 -0.237967 -0.0322 -0.0866118 0.00497222 0 0 3.10641 0 0 
98 1 98 0.139875 0.900062 0 0 -0.233334 -0.0100868 -0.078025 -0.0102561 0 0 3.0682 0 0 
99 1 99 0.139866 0.940077 0 0 -0.239355 -0.0215747 -0.0836561 0.010687 0 0 1.7905 0 0 
100 1 100 0.139857 0.980094 0 0 -0.220246 0.0196534 -0.0642996 -0.0107146 0 0 1.60147 0 0 
101 1 101 0.179983 0.0199895 0 0 -0.0880303 -0.173126 -0.08372 -0.0666289 0 0 0.0502455 0 0 
102 1 102 0.179951 0.0599694 0 0 -0.101929 -0.164238 -0.0853304 -0.0647353 0 0 0.507328 0 0 
103 1 103 0.179923 0.0999538 0 0 -0.129741 -0.143071 -0.0874697 -0.0611402 0 0 0.847131 0 0 
104 1 104 0.179896 0.139944 0 0 -0.160861 -0.111994 -0.0874797 -0.068358 0 0 1.34797 0 0 
105 1 105 0.179869 0.179941 0 0 -0.197395 -0.0994848 -0.0951858 -0.0606859 0 0 0.770448 0 0 
106 1 106 0.179848 0.219942 0 0 -0.230917 -0.0821921 -0.10039 -0.0603986 0 0 0.99013 0 0 
107 1 107 0.179833 0.259949 0 0 -0.254172 -0.0736955 -0.105128 -0.0420345 0 0 0.968104 0 0 
108 1 108 0.179829 0.299955 0 0 -0.27368 -0.0852689 -0.115109 -0.0262319 0 0 1.18526 0 0 
109 1 109 0.179832 0.339963 0 0 -0.279236 -0.0859127 -0.117102 -0.0138759 0 0 0.909607 0 0 
110 1 110 0.179841 0.379969 0 0 -0.280003 -0.0983276 -0.121329 -0.00497663 0 0 0.738005 0 0 
111 1 111 0.17985 0.419975 0 0 -0.271894 -0.10067 -0.119473 -0.0102954 0 0 0.79514 0 0 
112 1 112 0.179855 0.459978 0 0 -0.259498 -0.100522 -0.115446 -0.0169961 0 0 0.823899 0 0 
113 1 113 0.179856 0.499982 0 0 -0.242971 -0.094486 -0.108205 -0.0175624 0 0 0.926247 0 0 
114 1 114 0.179854 0.539985 0 0 -0.24023 -0.0980259 -0.108459 -0.0226345 0 0 0.878463 0 0 
115 1 115 0.179848 0.579989 0 0 -0.224284 -0.0690921 -0.0940572 -0.0130027 0 0 0.330851 0 0 
116 1 116 0.179843 0.619994 0 0 -0.223736 -0.0828873 -0.0983107 -0.0139049 0 0 -0.648495 0 0 
117 1 117 0.179838 0.66 0 0 -0.200795 -0.0380629 -0.0765664 -0.012628 0 0 -1.11009 0 0 
118 1 118 0.179838 0.700007 0 0 -0.206949 -0.0611602 -0.0859538 -0.00473096 0 0 -1.41461 0 0 
119 1 119 0.17984 0.740015 0 0 -0.196728 -0.0255199 -0.071239 -0.00760582 0 0 0.257217 0 0 
120 1 120 0.179842 0.780026 0 0 -0.213175 -0.0367459 -0.0801189 0.00476014 0 0 1.05465 0 0 
121 1 121 0.179844 0.820038 0 0 -0.210037 -0.0133756 -0.0716118 -0.00579438 0 0 2.54406 0 0 
122 1 122 0.179841 0.860053 0 0 -0.222349 -0.013103 -0.0754705 -0.00678481 0 0 2.87815 0 0 
123 1 123 0.179835 0.900067 0 0 -0.215182 -0.00239111 -0.0697339 -0.0143215 0 0 3.10517 0 0 
124 1 124 0.179826 0.940084 0 0 -0.222768 -0.0051514 -0.0730735 -0.00435659 0 0 2.11499 0 0 
125 1 125 0.179819 0.9801 0 0 -0.213698 0.00570971 -0.0666781 -0.0086302 0 0 1.79112 0 0 
126 1 126 0.219984 0.0199893 0 0 -0.0942324 -0.177482 -0.0871085 -0.0727053 0 0 0.200105 0 0 
127 1 127 0.219951 0.0599688 0 0 -0.108293 -0.169557 -0.0890751 -0.0713561 0 0 0.863497 0 0 
128 1 128 0.219916 0.0999524 0 0 -0.128318 -0.15022 -0.0893011 -0.0761477 0 0 1.15764 0 0 
129 1 129 0.21988 0.139941 0 0 -0.162743 -0.125642 -0.0924611 -0.0822701 0 0 1.35472 0 0 
130 1 130 0.219846 0.179935 0 0 -0.208231 -0.123823 -0.106473 -0.07367 0 0 0.958513 0 0 
131 1 131 0.219819 0.219934 0 0 -0.235296 -0.096165 -0.106277 -0.0701707 0 0 1.36201 0 0 
132 1 132 0.219799 0.259938 0 0 -0.262867 -0.0948219 -0.114695 -0.047884 0 0 1.16892 0 0 
133 1 133 0.219792 0.299942 0 0 -0.291554 -0.108922 -0.128437 -0.03319 0 0 1.48799 0 0 
134 1 134 0.219794 0.339949 0 0 -0.295848 -0.0932296 -0.124784 -0.0150723 0 0 1.45449 0 0 
135 1 135 0.219804 0.379955 0 0 -0.304364 -0.11082 -0.133165 -0.00549049 0 0 1.47058 0 0 
136 1 136 0.219815 0.419961 0 0 -0.293242 -0.0954855 -0.124666 -0.00822909 0 0 1.66077 0 0 
137 1 137 0.219823 0.459966 0 0 -0.289902 -0.110501 -0.128416 -0.0104595 0 0 1.91425 0 0 
138 1 138 0.21983 0.499971 0 0 -0.268819 -0.0924421 -0.115852 -0.0122856 0 0 2.51215 0 0 
139 1 139 0.219835 0.539975 0 0 -0.263565 -0.106555 -0.118692 -0.0183032 0 0 2.79307 0 0 
140 1 140 0.21984 0.57998 0 0 -0.242206 -0.0737959 -0.101322 -0.0114042 0 0 2.85258 0 0 
141 1 141 0.219847 0.619986 0 0 -0.25411 -0.0835708 -0.108281 -0.0196654 0 0 2.73828 0 0 
142 1 142 0.219847 0.659994 0 0 -0.245513 -0.0564442 -0.096813 -0.0192564 0 0 2.54785 0 0 
143 1 143 0.219845 0.700003 0 0 -0.240284 -0.0581768 -0.095691 -0.0122802 0 0 2.12878 0 0 
144 1 144 0.219838 0.740014 0 0 -0.230962 -0.0389203 -0.0865198 -0.0214152 0 0 3.13082 0 0 
145 1 145 0.219831 0.780026 0 0 -0.223441 -0.0233292 -0.0791041 -0.000871597 0 0 2.98051 0 0 
146 1 146 0.219825 0.82004 0 0 -0.223307 -0.0174898 -0.0771846 -0.0120249 0 0 3.90351 0 0 
147 1 147 0.219815 0.860055 0 0 -0.224164 -0.00126238 -0.072255 -0.0105786 0 0 3.61834 0 0 
148 1 148 0.219804 0.900072 0 0 -0.221013 0.0018526 -0.0702411 -0.0123207 0 0 3.44116 0 0 
149 1 149 0.219794 0.940088 0 0 -0.221836 -0.0098012 -0.0742652 -0.00672646 0 0 2.87533 0 0 
150 1 150 0.219786 0.980105 0 0 -0.211897 0.0163799 -0.0626782 -0.00567963 0 0 2.54362 0 0 
151 1 151 0.259981 0.0199896 0 0 -0.0838819 -0.171094 -0.0817416 -0.0760118 0 0 0.0262491 0 0 
152 1 152 0.259943 0.0599694 0 0 -0.10077 -0.164257 -0.0849601 -0.076092 0 0 0.578287 0 0 
153 1 153 0.259904 0.0999527 0 0 -0.141881 -0.163907 -0.0980415 -0.0881911 0 0 0.967043 0 0 
154 1 154 0.259862 0.139939 0 0 -0.175041 -0.148166 -0.103632 -0.093271 0 0 1.32431 0 0 
155 1 155 0.259822 0.179931 0 0 -0.20624 -0.134946 -0.109402 -0.0857571 0 0 1.01693 0 0 
156 1 156 0.259787 0.219927 0 0 -0.241337 -0.122323 -0.11661 -0.0824272 0 0 1.12947 0 0 
157 1 157 0.259763 0.259928 0 0 -0.26989 -0.114845 -0.123374 -0.0562504 0 0 0.716696 0 0 
158 1 158 0.259752 0.29993 0 0 -0.290946 -0.121959 -0.132423 -0.037723 0 0 1.02968 0 0 
159 1 159 0.259753 0.339935 0 0 -0.283294 -0.0885295 -0.119238 -0.0141039 0 0 1.00602 0 0 
160 1 160 0.259762 0.379941 0 0 -0.299556 -0.109448 -0.131179 -0.00507887 0 0 1.18154 0 0 
161 1 161 0.259773 0.419948 0 0 -0.282456 -0.0798334 -0.116181 -0.0052736 0 0 1.60844 0 0 
162 1 162 0.259781 0.459955 0 0 -0.272103 -0.0910421 -0.11646 -0.00822122 0 0 1.74485 0 0 
163 1 163 0.259787 0.499962 0 0 -0.247842 -0.0818798 -0.105734 -0.010923 0 0 2.25735 0 0 
164 1 164 0.259788 0.539967 0 0 -0.226625 -0.0746289 -0.0965929 -0.021085 0 0 2.37744 0 0 
165 1 165 0.259784 0.579972 0 0 -0.215982 -0.0683633 -0.0911653 -0.014777 0 0 1.81707 0 0 
166 1 166 0.259779 0.619978 0 0 -0.199093 -0.0457159 -0.0784789 -0.0239802 0 0 1.01321 0 0 
167 1 167 0.259774 0.659988 0 0 -0.18512 -0.0239942 -0.0670261 -0.0194482 0 0 0.0430375 0 0 
168 1 168 0.259775 0.699998 0 0 -0.182458 -0.0193316 -0.0646752 -0.0101896 0 0 -0.423374 0 0 
169 1 169 0.259776 0.74001 0 0 -0.179234 -0.000315093 -0.0575426 -0.0249618 0 0 1.0722 0 0 
170 1 170 0.259776 0.780024 0 0 -0.194711 -0.000898697 -0.0626922 -0.00337663 0 0 1.25321 0 0 
171 1 171 0.259776 0.82004 0 0 -0.202348 0.0145322 -0.060188 -0.0195874 0 0 2.96733 0 0 
172 1 172 0.25977 0.860058 0 0 -0.216109 0.00531182 -0.0675633 -0.0115807 0 0 3.20272 0 0 
173 1 173 0.259764 0.900075 0 0 -0.206397 0.0170571 -0.0606763 -0.0111452 0 0 3.23783 0 0 
174 1 174 0.259757 0.940093 0 0 -0.211667 -0.00493139 -0.0694397 -0.0103817 0 0 3.07153 0 0 
175 1 175 0.25975 0.980109 0 0 -0.193286 0.0209116 -0.055253 -0.00726737 0 0 3.02244 0 0 
176 1 176 0.299982 0.0199899 0 0 -0.0868132 -0.16827 -0.081777 -0.080025 0 0 0.233762 0 0 
177 1 177 0.299943 0.0599703 0 0 -0.10804 -0.164516 -0.0873785 -0.0883295 0 0 0.92482 0 0 
178 1 178 0.299896 0.0999529 0 0 -0.141532 -0.170984 -0.1002 -0.102306 0 0 1.09879 0 0 
179 1 179 0.299847 0.139938 0 0 -0.166574 -0.156884 -0.103711 -0.103061 0 0 1.36918 0 0 
180 1 180 0.299801 0.179928 0 0 -0.205517 -0.150085 -0.114029 -0.0997362 0 0 1.0558 0 0 
181 1 181 0.29976 0.21992 0 0 -0.243174 -0.149853 -0.126039 -0.0919177 0 0 1.03607 0 0 
182 1 182 0.299731 0.259917 0 0 -0.257529 -0.125842 -0.122937 -0.0631954 0 0 0.731088 0 0 
183 1 183 0.299717 0.299917 0 0 -0.282502 -0.126336 -0.131114 -0.0423339 0 0 1.10368 0 0 
184 1 184 0.299716 0.339921 0 0 -0.289548 -0.100966 -0.125233 -0.0179971 0 0 1.13496 0 0 
185 1 185 0.299723 0.379927 0 0 -0.307807 -0.10567 -0.132608 -0.00950453 0 0 1.43676 0 0 
186 1 186 0.299735 0.419935 0 0 -0.296672 -0.0846593 -0.122291 0.00260687 0 0 1.95031 0 0 
187 1 187 0.299748 0.459943 0 0 -0.282839 -0.083237 -0.117401 -0.00198947 0 0 2.57907 0 0 
188 1 188 0.299759 0.49995 0 0 -0.275412 -0.0926171 -0.118031 0.000584302 0 0 3.43157 0 0 
189 1 189 0.29977 0.539956 0 0 -0.249771 -0.0800117 -0.105749 -0.0101245 0 0 3.89206 0 0 
190 1 190 0.299778 0.579962 0 0 -0.245396 -0.0757718 -0.102981 -0.0142615 0 0 4.1987 0 0 
191 1 191 0.299784 0.619969 0 0 -0.25415 -0.0719763 -0.104571 -0.0193335 0 0 4.16578 0 0 
192 1 192 0.299784 0.659979 0 0 -0.247232 -0.0464223 -0.0941486 -0.023567 0 0 4.01424 0 0 
193 1 193 0.299781 0.699991 0 0 -0.26183 -0.0510565 -0.10032 -0.0171781 0 0 3.28592 0 0 
194 1 194 0.299773 0.740004 0 0 -0.247861 -0.0208294 -0.0861372 -0.0314944 0 0 3.76839 0 0 
195 1 195 0.299764 0.78002 0 0 -0.242178 -0.0141545 -0.082171 -0.0146544 0 0 3.40402 0 0 
196 1 196 0.299755 0.820038 0 0 -0.235995 0.0107266 -0.0722014 -0.0296057 0 0 4.11172 0 0 
197 1 197 0.299743 0.860057 0 0 -0.225075 0.0104563 -0.0687904 -0.0214465 0 0 3.72514 0 0 
198 1 198 0.299734 0.900077 0 0 -0.210942 0.0201069 -0.0611573 -0.0177022 0 0 3.71674 0 0 
199 1 199 0.299726 0.940094 0 0 -0.217897 -0.00696904 -0.0720893 -0.0168016 0 0 3.76951 0 0 
200 1 200 0.299719 0.98011 0 0 -0.193608 0.0182796 -0.0561975 -0.010398 0 0 4.15324 0 0 
201 1 201 0.339978 0.0199901 0 0 -0.0895368 -0.169167 -0.0829384 -0.0867149 0 0 0.107469 0 0 
202 1 202 0.339933 0.0599705 0 0 -0.11658 -0.167206 -0.0909823 -0.101895 0 0 0.771014 0 0 
203 1 203 0.339883 0.0999533 0 0 -0.151411 -0.17704 -0.105315 -0.112397 0 0 1.08915 0 0 
204 1 204 0.339831 0.139938 0 0 -0.170408 -0.167151 -0.108237 -0.112682 0 0 1.36451 0 0 
205 1 205 0.339779 0.179925 0 0 -0.195239 -0.162861 -0.114833 -0.112879 0 0 0.985166 0 0 
206 1 206 0.339733 0.219915 0 0 -0.218209 -0.160224 -0.121357 -0.09765 0 0 0.84534 0 0 
207 1 207 0.3397 0.259908 0 0 -0.229846 -0.134042 -0.116685 -0.071255 0 0 0.353703 0 0 
208 1 208 0.339682 0.299906 0 0 -0.250174 -0.122411 -0.119476 -0.0505808 0 0 0.269048 0 0 
209 1 209 0.339677 0.339907 0 0 -0.256362 -0.0986161 -0.113825 -0.0240422 0 0 0.148156 0 0 
210 1 210 0.339682 0.379913 0 0 -0.260726 -0.0766998 -0.10819 -0.0183218 0 0 0.822161 0 0 
211 1 211 0.339693 0.419922 0 0 -0.255681 -0.0600197 -0.101221 0.00291491 0 0 1.29507 0 0 
212 1 212 0.339707 0.459931 0 0 -0.24174 -0.0607985 -0.0970015 -0.00464751 0 0 1.76616 0 0 
213 1 213 0.339717 0.49994 0 0 -0.222437 -0.0525802 -0.088175 -0.00306187 0 0 2.52271 0 0 
214 1 214 0.339724 0.539947 0 0 -0.215948 -0.063384 -0.089556 -0.0106368 0 0 2.5541 0 0 
215 1 215 0.339721 0.579954 0 0 -0.204661 -0.0486718 -0.081213 -0.0231443 0 0 2.62705 0 0 
216 1 216 0.339715 0.619962 0 0 -0.199427 -0.038437 -0.076252 -0.0221915 0 0 1.77522 0 0 
217 1 217 0.339709 0.659972 0 0 -0.193829 -0.0257852 -0.0703961 -0.0233143 0 0 1.1185 0 0 
218 1 218 0.339708 0.699983 0 0 -0.193223 -0.00575051 -0.0637755 -0.0200041 0 0 0.855923 0 0 
219 1 219 0.339707 0.739998 0 0 -0.203688 0.00118014 -0.0649073 -0.0271043 0 0 1.38905 0 0 
220 1 220 0.339705 0.780014 0 0 -0.215379 0.00697201 -0.0667986 -0.0198249 0 0 1.60645 0 0 
221 1 221 0.339702 0.820034 0 0 -0.216818 0.0257161 -0.0612454 -0.0319464 0 0 2.90329 0 0 
222 1 222 0.339697 0.860053 0 0 -0.225745 0.00634118 -0.0703296 -0.0201844 0 0 2.98471 0 0 
223 1 223 0.339694 0.900073 0 0 -0.204479 0.034475 -0.054482 -0.0262469 0 0 3.6021 0 0 
224 1 224 0.339689 0.940091 0 0 -0.203775 0.00135465 -0.06489 -0.0184369 0 0 3.96316 0 0 
225 1 225 0.339687 0.980108 0 0 -0.174106 0.0257067 -0.0475606 -0.0141153 0 0 4.82616 0 0 
226 1 226 0.379978 0.0199897 0 0 -0.10234 -0.1793 -0.0902953 -0.0966782 0 0 0.280577 0 0 
227 1 227 0.379931 0.0599695 0 0 -0.128026 -0.173885 -0.0967974 -0.113582 0 0 1.11109 0 0 
228 1 228 0.379875 0.0999525 0 0 -0.141135 -0.16992 -0.0997324 -0.120469 0 0 1.26615 0 0 
229 1 229 0.379819 0.139936 0 0 -0.157402 -0.170888 -0.105263 -0.123493 0 0 1.4106 0 0 
230 1 230 0.379763 0.179922 0 0 -0.177195 -0.169884 -0.111296 -0.124096 0 0 1.1632 0 0 
231 1 231 0.379714 0.219908 0 0 -0.190547 -0.165876 -0.114296 -0.105222 0 0 0.970999 0 0 
232 1 232 0.379677 0.259899 0 0 -0.203824 -0.14406 -0.111553 -0.0834621 0 0 0.358171 0 0 
233 1 233 0.379655 0.299893 0 0 -0.227656 -0.126784 -0.113656 -0.0602212 0 0 0.180894 0 0 
234 1 234 0.379647 0.339893 0 0 -0.245083 -0.102406 -0.111426 -0.0310229 0 0 0.153083 0 0 
235 1 235 0.379649 0.379897 0 0 -0.256197 -0.0787512 -0.107397 -0.0243327 0 0 0.844353 0 0 
236 1 236 0.379659 0.419905 0 0 -0.259273 -0.058083 -0.101752 0.000181934 0 0 1.38249 0 0 
237 1 237 0.379675 0.459915 0 0 -0.272928 -0.0726599 -0.110813 -0.0038615 0 0 2.10259 0 0 
238 1 238 0.37969 0.499925 0 0 -0.258348 -0.0555502 -0.100646 0.00199199 0 0 3.08385 0 0 
239 1 239 0.379705 0.539934 0 0 -0.25582 -0.0704313 -0.104609 -0.00782249 0 0 3.52703 0 0 
240 1 240 0.379713 0.579942 0 0 -0.262829 -0.0727207 -0.107595 -0.0231886 0 0 4.13969 0 0 
241 1 241 0.379717 0.619952 0 0 -0.273231 -0.0639567 -0.108125 -0.025665 0 0 4.1794 0 0 
242 1 242 0.379715 0.659963 0 0 -0.301695 -0.0775954 -0.121638 -0.0328249 0 0 4.26453 0 0 
243 1 243 0.379709 0.699975 0 0 -0.302475 -0.0501316 -0.113072 -0.0277359 0 0 3.79287 0 0 
244 1 244 0.379699 0.739991 0 0 -0.284931 -0.033274 -0.102027 -0.033677 0 0 3.79955 0 0 
245 1 245 0.379689 0.780008 0 0 -0.275926 -0.0234795 -0.0959947 -0.0300182 0 0 3.47956 0 0 
246 1 246 0.379678 0.820027 0 0 -0.243302 0.0181862 -0.0721596 -0.035217 0 0 3.70578 0 0 
247 1 247 0.37967 0.860047 0 0 -0.227478 0.000477463 -0.0727716 -0.024778 0 0 3.56745 0 0 
248 1 248 0.379663 0.900066 0 0 -0.208351 0.0348968 -0.0555949 -0.0300652 0 0 4.28912 0 0 
249 1 249 0.379658 0.940085 0 0 -0.214865 0.00129906 -0.0684696 -0.0188994 0 0 4.6682 0 0 
250 1 250 0.379658 0.980101 0 0 -0.189612 0.0142048 -0.0562231 -0.0174856 0 0 5.96726 0 0 
251 1 251 0.419973 0.0199891 0 0 -0.106792 -0.188536 -0.0946869 -0.109164 0 0 0.231092 0 0 
252 1 252 0.419919 0.0599684 0 0 -0.130127 -0.175818 -0.0980901 -0.121149 0 0 1.08412 0 0 
253 1 253 0.419863 0.0999514 0 0 -0.144762 -0.171689 -0.101464 -0.123782 0 0 1.26848 0 0 
254 1 254 0.419806 0.139934 0 0 -0.157762 -0.181929 -0.108923 -0.129237 0 0 1.4264 0 0 
255 1 255 0.419748 0.179917 0 0 -0.15747 -0.177869 -0.10753 -0.128142 0 0 1.23371 0 0 
256 1 256 0.419697 0.219901 0 0 -0.159741 -0.166654 -0.10466 -0.112261 0 0 0.913984 0 0 
257 1 257 0.419657 0.259889 0 0 -0.175483 -0.153382 -0.105451 -0.0954642 0 0 0.130236 0 0 
258 1 258 0.419629 0.29988 0 0 -0.183749 -0.120517 -0.0975569 -0.0711057 0 0 -0.317713 0 0 
259 1 259 0.419616 0.339878 0 0 -0.195523 -0.0886242 -0.0911008 -0.0443383 0 0 -0.309867 0 0 
260 1 260 0.419614 0.379881 0 0 -0.213102 -0.0679871 -0.090116 -0.0355882 0 0 0.114039 0 0 
261 1 261 0.419621 0.419888 0 0 -0.219613 -0.0456778 -0.0850471 -0.0107045 0 0 0.495957 0 0 
262 1 262 0.419635 0.459898 0 0 -0.224485 -0.0426403 -0.0856349 -0.0154356 0 0 1.21254 0 0 
263 1 263 0.419647 0.499909 0 0 -0.219916 -0.02855 -0.0796507 -0.00812938 0 0 1.53058 0 0 
264 1 264 0.419656 0.539921 0 0 -0.230804 -0.044415 -0.0882324 -0.02232 0 0 1.64505 0 0 
265 1 265 0.419653 0.579931 0 0 -0.231387 -0.0435746 -0.0881503 -0.0368225 0 0 1.79519 0 0 
266 1 266 0.419644 0.619942 0 0 -0.220572 -0.0341034 -0.0816471 -0.0318965 0 0 1.07454 0 0 
267 1 267 0.419636 0.659953 0 0 -0.21786 -0.0283716 -0.0789368 -0.0402445 0 0 1.19208 0 0 
268 1 268 0.41963 0.699967 0 0 -0.225931 -0.00961944 -0.0755087 -0.0281107 0 0 0.787715 0 0 
269 1 269 0.419628 0.739983 0 0 -0.234258 -0.00670346 -0.0772421 -0.0262571 0 0 0.939425 0 0 
270 1 270 0.419626 0.78 0 0 -0.234838 -0.00224774 -0.0760014 -0.0299069 0 0 1.54255 0 0 
271 1 271 0.419624 0.820019 0 0 -0.226669 0.0184603 -0.0667386 -0.0257225 0 0 2.04649 0 0 
272 1 272 0.419623 0.860038 0 0 -0.228957 -0.00045693 -0.0735478 -0.0218847 0 0 2.66694 0 0 
273 1 273 0.419622 0.900057 0 0 -0.203336 0.0373392 -0.0532072 -0.0332373 0 0 4.10846 0 0 
274 1 274 0.419621 0.940076 0 0 -0.203763 0.0035328 -0.0641956 -0.0128613 0 0 4.75372 0 0 
275 1 275 0.419625 0.980092 0 0 -0.180728 0.0196159 -0.0516401 -0.0183487 0 0 6.66316 0 0 
276 1 276 0.459972 0.0199885 0 0 -0.121846 -0.202625 -0.104041 -0.123715 0 0 0.330244 0 0 
277 1 277 0.459915 0.0599668 0 0 -0.14502 -0.187069 -0.106481 -0.127432 0 0 1.24093 0 0 
278 1 278 0.459855 0.0999487 0 0 -0.144504 -0.179078 -0.103752 -0.129719 0 0 1.28755 0 0 
279 1 279 0.459796 0.13993 0 0 -0.144529 -0.185234 -0.105738 -0.135548 0 0 1.52512 0 0 
280 1 280 0.459739 0.179911 0 0 -0.139569 -0.184699 -0.103977 -0.130666 0 0 1.42163 0 0 
281 1 281 0.459688 0.219893 0 0 -0.13824 -0.171298 -0.0992489 -0.120882 0 0 1.13641 0 0 
282 1 282 0.459644 0.259877 0 0 -0.156574 -0.165087 -0.103139 -0.106458 0 0 0.517527 0 0 
283 1 283 0.459612 0.299866 0 0 -0.174274 -0.131481 -0.0980343 -0.0828957 0 0 -0.0391812 0 0 
284 1 284 0.459594 0.339861 0 0 -0.206689 -0.108396 -0.101028 -0.0599819 0 0 0.113769 0 0 
285 1 285 0.459586 0.379862 0 0 -0.233573 -0.0885861 -0.103296 -0.0467744 0 0 0.472428 0 0 
286 1 286 0.459591 0.419868 0 0 -0.252792 -0.0678692 -0.102814 -0.018775 0 0 1.09878 0 0 
287 1 287 0.459603 0.459877 0 0 -0.276476 -0.0649503 -0.109482 -0.0177634 0 0 2.11659 0 0 
288 1 288 0.459617 0.499889 0 0 -0.287626 -0.052607 -0.109102 -0.0105132 0 0 2.36064 0 0 
289 1 289 0.459631 0.539902 0 0 -0.306598 -0.0660157 -0.119492 -0.0223035 0 0 2.64486 0 0 
290 1 290 0.459638 0.579915 0 0 -0.30838 -0.0598643 -0.118088 -0.0349139 0 0 3.1755 0 0 
291 1 291 0.459641 0.619929 0 0 -0.326816 -0.0729774 -0.12822 -0.0345428 0 0 3.21504 0 0 
292 1 292 0.459637 0.659943 0 0 -0.344861 -0.0759516 -0.134968 -0.0456484 0 0 3.87049 0 0 
293 1 293 0.459626 0.699958 0 0 -0.335935 -0.0547146 -0.125284 -0.0350978 0 0 3.55498 0 0 
294 1 294 0.459616 0.739975 0 0 -0.320968 -0.0438205 -0.116978 -0.0268478 0 0 3.20254 0 0 
295 1 295 0.459607 0.779993 0 0 -0.295099 -0.0285918 -0.103791 -0.0295402 0 0 3.20917 0 0 
296 1 296 0.459599 0.820011 0 0 -0.254658 -0.00162983 -0.0821608 -0.0208197 0 0 2.99436 0 0 
297 1 297 0.459596 0.860029 0 0 -0.240626 -0.010177 -0.0804079 -0.0188812 0 0 3.37876 0 0 
298 1 298 0.459591 0.900048 0 0 -0.220316 0.0232561 -0.0631686 -0.0312903 0 0 4.71705 0 0 
299 1 299 0.45959 0.940066 0 0 -0.225743 -0.00947732 -0.0754174 -0.00902714 0 0 5.37642 0 0 
300 1 300 0.459594 0.980082 0 0 -0.209222 0.00774749 -0.0645835 -0.017729 0 0 7.42492 0 0 
301 1 301 0.499966 0.019988 0 0 -0.111855 -0.20395 -0.101261 -0.138105 0 0 0.228592 0 0 
302 1 302 0.499903 0.059965 0 0 -0.129841 -0.192678 -0.103411 -0.132795 0 0 1.00203 0 0 
303 1 303 0.499844 0.099945 0 0 -0.140877 -0.189618 -0.105972 -0.133291 0 0 1.21256 0 0 
304 1 304 0.499786 0.139924 0 0 -0.144087 -0.194361 -0.108525 -0.136024 0 0 1.6102 0 0 
305 1 305 0.49973 0.179904 0 0 -0.136098 -0.194429 -0.105985 -0.13121 0 0 1.43017 0 0 
306 1 306 0.499678 0.219884 0 0 -0.133528 -0.183007 -0.101495 -0.128308 0 0 1.18518 0 0 
307 1 307 0.499631 0.259866 0 0 -0.145396 -0.174566 -0.102593 -0.114988 0 0 0.699517 0 0 
308 1 308 0.499594 0.299852 0 0 -0.15436 -0.134972 -0.0927621 -0.0949965 0 0 0.0291131 0 0 
309 1 309 0.499568 0.339845 0 0 -0.185392 -0.114712 -0.0962179 -0.0728436 0 0 0.134323 0 0 
310 1 310 0.499555 0.379844 0 0 -0.206341 -0.0883126 -0.0944657 -0.0534181 0 0 0.309066 0 0 
311 1 311 0.499554 0.419848 0 0 -0.225512 -0.0629441 -0.0924773 -0.0323345 0 0 0.852512 0 0 
312 1 312 0.49956 0.459857 0 0 -0.252914 -0.0567714 -0.0992953 -0.0299247 0 0 1.30715 0 0 
313 1 313 0.499568 0.499869 0 0 -0.262192 -0.036274 -0.0956987 -0.0242644 0 0 1.04162 0 0 
314 1 314 0.499574 0.539884 0 0 -0.273297 -0.033168 -0.0982617 -0.0353703 0 0 1.16204 0 0 
315 1 315 0.49957 0.5799 0 0 -0.264503 -0.021514 -0.0916976 -0.0414812 0 0 0.978138 0 0 
316 1 316 0.499561 0.619916 0 0 -0.253627 -0.0206177 -0.0879215 -0.0436812 0 0 0.491716 0 0 
317 1 317 0.49955 0.659932 0 0 -0.241252 -0.0078324 -0.0798492 -0.0456754 0 0 0.827854 0 0 
318 1 318 0.499543 0.699949 0 0 -0.239367 -0.00205143 -0.0773902 -0.0307881 0 0 0.763905 0 0 
319 1 319 0.499542 0.739968 0 0 -0.242409 0.00280941 -0.0768049 -0.0190584 0 0 0.886636 0 0 
320 1 320 0.499543 0.779986 0 0 -0.239659 -0.00297859 -0.0777835 -0.0175226 0 0 1.33444 0 0 
321 1 321 0.499545 0.820004 0 0 -0.230298 0.00258179 -0.0729938 -0.0116673 0 0 1.62958 0 0 
322 1 322 0.499548 0.860021 0 0 -0.237396 -0.0108549 -0.0795862 -0.0162733 0 0 2.64788 0 0 
323 1 323 0.499549 0.900038 0 0 -0.220753 0.0117579 -0.0669931 -0.026271 0 0 4.29134 0 0 
324 1 324 0.499552 0.940056 0 0 -0.222405 -0.00887761 -0.0741488 -0.00243896 0 0 5.36259 0 0 
325 1 325 0.499558 0.980072 0 0 -0.217008 0.00904215 -0.066662 -0.0158269 0 0 7.6183 0 0 
326 1 326 0.539966 0.0199872 0 0 -0.120846 -0.217525 -0.108503 -0.150633 0 0 0.276048 0 0 
327 1 327 0.5399 0.0599619 0 0 -0.142634 -0.216046 -0.115019 -0.139196 0 0 0.96033 0 0 
328 1 328 0.539839 0.0999393 0 0 -0.138515 -0.20261 -0.109385 -0.137964 0 0 1.14912 0 0 
329 1 329 0.53978 0.139917 0 0 -0.134241 -0.200845 -0.107446 -0.138923 0 0 1.53653 0 0 