ITEM: TIMESTEP
0
ITEM: NUMBER OF ATOMS
6875
ITEM: BOX BOUNDS sm sm sm
0 4
0 2
0 0
ITEM: ATOMS id type tag x y z damage s11 s22 s33 s12 s13 s23 vx T ienergy 
1 1 1 0.0199999 0.0200011 0 0 0.0074683 0.0147304 0.00711673 0.00398341 0 0 -0.314439 0 0 
2 1 2 0.0199999 0.0600009 0 0 -0.000125944 -0.00559988 -0.00182473 0.00622201 0 0 -0.742181 0 0 
3 1 3 0.020002 0.100002 0 0 0.0393946 0.0231431 0.0200415 0.0137191 0 0 -0.555789 0 0 
4 1 4 0.0200061 0.140001 0 0 0.0954778 0.0409161 0.0436902 0.0134513 0 0 -0.180565 0 0 
5 1 5 0.020009 0.18 0 0 0.143199 0.0575057 0.0642766 0.0064778 0 0 -0.584236 0 0 
6 1 6 0.020011 0.219998 0 0 0.171995 0.0728305 0.0783967 -0.00370102 0 0 -0.4122 0 0 
7 1 7 0.0200127 0.259997 0 0 0.194903 0.0719965 0.085461 -0.00860706 0 0 -0.381975 0 0 
8 1 8 0.020013 0.299995 0 0 0.208891 0.102962 0.0998443 -0.026493 0 0 -0.0505876 0 0 
9 1 9 0.020011 0.339997 0 0 0.190589 0.104181 0.0943823 -0.0135357 0 0 -0.132977 0 0 
10 1 10 0.0200099 0.38 0 0 0.17793 0.121774 0.0959616 -0.00292318 0 0 0.31275 0 0 
11 1 11 0.0200084 0.420007 0 0 0.159016 0.108463 0.0856522 0.0314014 0 0 0.164435 0 0 
12 1 12 0.0200091 0.460011 0 0 0.15566 0.0945959 0.0801405 0.0453927 0 0 0.361771 0 0 
13 1 13 0.020009 0.500014 0 0 0.15275 0.0750024 0.0729382 0.0593475 0 0 0.372665 0 0 
14 1 14 0.0200086 0.540013 0 0 0.137684 0.0562634 0.0621173 0.0474595 0 0 0.270856 0 0 
15 1 15 0.0200062 0.580011 0 0 0.11398 0.0382437 0.04876 0.0461984 0 0 -0.160379 0 0 
16 1 16 0.0200035 0.620009 0 0 0.0703776 0.0329537 0.0331042 0.0251114 0 0 -0.0437475 0 0 
17 1 17 0.0199989 0.66001 0 0 0.0209664 0.0156115 0.0117236 0.0426843 0 0 -0.541192 0 0 
18 1 18 0.0199981 0.700011 0 0 -0.0051766 0.00921912 0.00130038 0.039011 0 0 -0.497008 0 0 
19 1 19 0.0199965 0.740013 0 0 -0.0177677 -0.00507334 -0.00731296 0.0595246 0 0 -0.621338 0 0 
20 1 20 0.0199999 0.780011 0 0 -0.000114292 -0.0125172 -0.0040414 0.0501255 0 0 -0.474574 0 0 
21 1 21 0.0199995 0.820009 0 0 0.00519916 -0.0237059 -0.00592296 0.0396721 0 0 -0.236504 0 0 
22 1 22 0.0200042 0.860003 0 0 0.0422496 -0.023722 0.00594216 0.0222654 0 0 -0.624398 0 0 
23 1 23 0.0200039 0.900001 0 0 0.0775388 0.0476667 0.0401088 -0.00711931 0 0 0.917718 0 0 
24 1 24 0.0200085 0.939996 0 0 0.101029 -0.0212166 0.0255717 0.0100619 0 0 -0.599028 0 0 
25 1 25 0.020009 0.979991 0 0 0.178025 0.0854839 0.0744024 -0.0727684 0 0 1.6126 0 0 
26 1 26 0.0599992 0.0200021 0 0 0.00794623 0.0273315 0.0113073 -0.000932971 0 0 -1.10186 0 0 
27 1 27 0.0600002 0.0600032 0 0 0.00705313 0.00942453 0.00528598 0.0118498 0 0 -1.57162 0 0 
28 1 28 0.0600072 0.100008 0 0 0.0574425 0.0563656 0.0364599 0.041343 0 0 -0.569677 0 0 
29 1 29 0.0600169 0.140008 0 0 0.057832 0.0158426 0.0236089 0.0420716 0 0 -0.0171557 0 0 
30 1 30 0.0600243 0.180007 0 0 0.0865681 0.0261837 0.0361207 0.0439706 0 0 -1.06512 0 0 
31 1 31 0.060031 0.220003 0 0 0.126481 0.0403691 0.0534406 0.0343134 0 0 -0.832564 0 0 
32 1 32 0.0600356 0.259999 0 0 0.134248 0.0195244 0.0492539 0.0382731 0 0 -0.848982 0 0 
33 1 33 0.0600353 0.299994 0 0 0.142642 0.0685875 0.067646 0.000663195 0 0 0.1798 0 0 
34 1 34 0.0600281 0.339998 0 0 0.108795 0.0813506 0.0608986 0.010988 0 0 0.062233 0 0 
35 1 35 0.0600232 0.380005 0 0 0.08988 0.111582 0.0645209 -0.00255678 0 0 0.934456 0 0 
36 1 36 0.0600195 0.420018 0 0 0.0848822 0.117143 0.0647015 0.0245821 0 0 0.62709 0 0 
37 1 37 0.0600231 0.460026 0 0 0.0941485 0.0791452 0.0555037 0.0219474 0 0 0.996471 0 0 
38 1 38 0.0600263 0.500031 0 0 0.121859 0.0681741 0.0608614 0.0284428 0 0 1.55887 0 0 
39 1 39 0.0600282 0.540028 0 0 0.121354 0.0227448 0.0461571 0.00407379 0 0 1.93079 0 0 
40 1 40 0.0600235 0.580024 0 0 0.107845 0.0300009 0.0441555 0.00288414 0 0 2.02029 0 0 
41 1 41 0.0600158 0.620021 0 0 0.0668418 0.0171385 0.0269069 -0.0233265 0 0 2.49242 0 0 
42 1 42 0.0600038 0.660023 0 0 0.0331345 0.0506354 0.026839 -8.26375e-05 0 0 2.14651 0 0 
43 1 43 0.0599997 0.700027 0 0 -0.00189831 0.0179117 0.00513545 0.00892487 0 0 1.84055 0 0 
44 1 44 0.0599975 0.740032 0 0 0.00759191 0.04141 0.0157042 0.0334141 0 0 1.95829 0 0 
45 1 45 0.0600042 0.780032 0 0 0.0103732 -0.0336173 -0.00744211 0.0559119 0 0 0.691995 0 0 
46 1 46 0.06001 0.820026 0 0 0.0929189 0.0235366 0.0373082 0.0445012 0 0 1.31068 0 0 
47 1 47 0.0600148 0.860018 0 0 0.0409898 -0.0798662 -0.0124512 0.0670852 0 0 -0.155343 0 0 
48 1 48 0.0600182 0.900009 0 0 0.142375 0.074372 0.069414 0.0290044 0 0 1.86723 0 0 
49 1 49 0.0600247 0.940004 0 0 0.0685586 -0.0578465 0.00344232 0.0922577 0 0 0.636772 0 0 
50 1 50 0.060031 0.97999 0 0 0.174772 0.0302046 0.065648 0.00476565 0 0 3.508 0 0 
51 1 51 0.0999975 0.0200033 0 0 0.00990719 0.0437882 0.0171963 -0.00174415 0 0 -1.68809 0 0 
52 1 52 0.0999997 0.0600094 0 0 0.0178912 0.0535237 0.0228783 0.0313997 0 0 -2.08175 0 0 
53 1 53 0.10001 0.100018 0 0 0.0410384 0.0700411 0.035585 0.0528809 0 0 -0.690845 0 0 
54 1 54 0.100022 0.14002 0 0 0.0112822 -0.0041609 0.00228852 0.0467833 0 0 -0.0612251 0 0 
55 1 55 0.100032 0.18002 0 0 0.037361 0.0177068 0.0176464 0.0613335 0 0 -1.01777 0 0 
56 1 56 0.100043 0.220018 0 0 0.0484543 -0.00175328 0.0149673 0.0495482 0 0 -0.929771 0 0 
57 1 57 0.10005 0.260013 0 0 0.0428901 -0.0184611 0.00783198 0.0503983 0 0 -0.770097 0 0 
58 1 58 0.100047 0.300009 0 0 0.0400738 0.00859179 0.0155951 0.00931418 0 0 0.602415 0 0 
59 1 59 0.100033 0.340011 0 0 0.0141615 0.0306363 0.0143565 0.0117633 0 0 0.376635 0 0 
60 1 60 0.100023 0.380015 0 0 -0.00896632 0.040435 0.0100875 0.00293172 0 0 0.898037 0 0 
61 1 61 0.10002 0.420025 0 0 0.0103284 0.0747734 0.0272658 0.024715 0 0 0.751208 0 0 
62 1 62 0.100028 0.460032 0 0 0.0219803 0.0238741 0.0146935 0.0259343 0 0 0.887706 0 0 
63 1 63 0.100037 0.500034 0 0 0.0758362 0.044836 0.0386542 0.0163194 0 0 1.85489 0 0 
64 1 64 0.100043 0.540031 0 0 0.085347 -0.0107826 0.0238903 -0.00232752 0 0 1.87994 0 0 
65 1 65 0.100037 0.580025 0 0 0.115454 0.0466895 0.0519342 -0.0273342 0 0 2.27552 0 0 
66 1 66 0.100022 0.620024 0 0 0.0700972 0.0155426 0.0274388 -0.0377739 0 0 1.89719 0 0 
67 1 67 0.100005 0.660026 0 0 0.0797186 0.092522 0.0551663 -0.0287843 0 0 1.76441 0 0 
68 1 68 0.0999959 0.700034 0 0 0.0346615 0.051011 0.0274483 0.00332105 0 0 1.48982 0 0 
69 1 69 0.0999967 0.740041 0 0 0.0725993 0.0969858 0.0543166 0.0198803 0 0 2.11562 0 0 
70 1 70 0.100007 0.780046 0 0 0.0532184 0.0174577 0.0226455 0.0670018 0 0 0.866771 0 0 
71 1 71 0.100022 0.820045 0 0 0.107261 0.0558013 0.0522286 0.0564793 0 0 1.14613 0 0 
72 1 72 0.100029 0.860042 0 0 0.10369 -0.0139759 0.028743 0.0698065 0 0 1.05108 0 0 
73 1 73 0.100035 0.900034 0 0 0.124196 0.0372019 0.0516988 0.0688266 0 0 2.50584 0 0 
74 1 74 0.100044 0.940026 0 0 0.133424 -0.0164162 0.0374909 0.0869597 0 0 3.2511 0 0 
75 1 75 0.100057 0.980013 0 0 0.160768 -0.0123717 0.0475387 0.0720927 0 0 4.41807 0 0 
76 1 76 0.139996 0.0200069 0 0 0.0414482 0.0974818 0.0444931 -0.00342706 0 0 -1.42727 0 0 
77 1 77 0.139998 0.0600178 0 0 0.0201303 0.0741735 0.0302088 0.03287 0 0 -1.90957 0 0 
78 1 78 0.140009 0.100026 0 0 -0.00721054 0.0367453 0.00946133 0.0381677 0 0 -0.585857 0 0 
79 1 79 0.140021 0.14003 0 0 -0.0204414 0.000200576 -0.00648399 0.0354146 0 0 0.613642 0 0 
80 1 80 0.140034 0.180032 0 0 -0.0125018 0.0015702 -0.00349938 0.0490437 0 0 -0.0676297 0 0 
81 1 81 0.140046 0.22003 0 0 -0.03295 -0.0391423 -0.023097 0.0340575 0 0 -0.494764 0 0 
82 1 82 0.140052 0.260027 0 0 -0.042972 -0.0358249 -0.0252461 0.0302681 0 0 -0.100149 0 0 
83 1 83 0.140047 0.300025 0 0 -0.0526012 -0.0295693 -0.0263279 -0.0028314 0 0 1.30921 0 0 
84 1 84 0.14003 0.340026 0 0 -0.064538 -0.0188512 -0.0267177 -0.00539745 0 0 1.37536 0 0 
85 1 85 0.140016 0.380029 0 0 -0.0717697 -0.00938086 -0.0259982 0.00696733 0 0 1.75483 0 0 
86 1 86 0.140014 0.420034 0 0 -0.0518206 0.00377044 -0.0153886 0.0356829 0 0 1.58366 0 0 
87 1 87 0.140027 0.460035 0 0 -0.0370587 -0.0188726 -0.0179157 0.0495979 0 0 1.45203 0 0 
88 1 88 0.140044 0.500035 0 0 0.00786819 -0.00190347 0.00191737 0.039258 0 0 2.65186 0 0 
89 1 89 0.140054 0.540032 0 0 0.0189904 -0.0265115 -0.00240285 0.0214058 0 0 3.11456 0 0 
90 1 90 0.14005 0.580028 0 0 0.0446149 0.0146506 0.0189924 -0.0136199 0 0 4.19742 0 0 
91 1 91 0.140032 0.620028 0 0 0.0330664 0.0196427 0.0168915 -0.0306327 0 0 4.63432 0 0 
92 1 92 0.140011 0.660032 0 0 0.0361771 0.0638795 0.0320548 -0.0168547 0 0 4.5906 0 0 
93 1 93 0.140001 0.70004 0 0 0.0337572 0.0675289 0.0324479 0.00680382 0 0 4.85569 0 0 
94 1 94 0.140002 0.740049 0 0 0.0540105 0.0885618 0.045668 0.0388962 0 0 4.74007 0 0 
95 1 95 0.140017 0.780056 0 0 0.0653347 0.0633202 0.0412113 0.0596465 0 0 3.72417 0 0 
96 1 96 0.140033 0.820062 0 0 0.091121 0.0770251 0.0538557 0.0658234 0 0 2.62493 0 0 
97 1 97 0.140046 0.860062 0 0 0.0936088 0.0146803 0.0346947 0.0549679 0 0 2.36451 0 0 
98 1 98 0.140054 0.900059 0 0 0.148198 0.0476429 0.0627262 0.0498494 0 0 4.05084 0 0 
99 1 99 0.140068 0.940049 0 0 0.126725 -0.0397876 0.0278564 0.0931546 0 0 4.78471 0 0 
100 1 100 0.14008 0.980038 0 0 0.134251 0.0395425 0.0556652 0.0509457 0 0 5.64363 0 0 
101 1 101 0.179997 0.0200086 0 0 0.0652091 0.126898 0.0615255 -0.0135167 0 0 -0.808619 0 0 
102 1 102 0.179997 0.0600194 0 0 0.0330558 0.0678934 0.0323409 0.00394285 0 0 -0.968434 0 0 
103 1 103 0.180005 0.100026 0 0 -0.00729429 0.0198018 0.00400647 0.0102331 0 0 0.128005 0 0 
104 1 104 0.180018 0.140031 0 0 -0.00674787 0.0337841 0.00866079 0.0165898 0 0 1.16254 0 0 
105 1 105 0.18003 0.180034 0 0 -0.0406394 -0.015794 -0.0180831 0.0222595 0 0 0.491971 0 0 
106 1 106 0.18004 0.220033 0 0 -0.0744323 -0.0397396 -0.036587 0.0119712 0 0 0.0335688 0 0 
107 1 107 0.180044 0.260035 0 0 -0.0912362 -0.0223201 -0.0363887 0.0101206 0 0 0.74951 0 0 
108 1 108 0.180035 0.300038 0 0 -0.12066 -0.0421581 -0.0521835 -0.0135959 0 0 1.71006 0 0 
109 1 109 0.180016 0.340041 0 0 -0.126305 -0.0445749 -0.0547676 -0.0139087 0 0 1.59652 0 0 
110 1 110 0.180002 0.380042 0 0 -0.122332 -0.0439864 -0.0533023 0.00806287 0 0 1.72802 0 0 
111 1 111 0.180002 0.420043 0 0 -0.113497 -0.0595784 -0.0554676 0.0454419 0 0 1.22805 0 0 
112 1 112 0.180019 0.460042 0 0 -0.0904434 -0.0485884 -0.0445523 0.0624495 0 0 1.30871 0 0 
113 1 113 0.18004 0.500041 0 0 -0.059544 -0.0365913 -0.0308009 0.0638224 0 0 2.10751 0 0 
114 1 114 0.180054 0.540039 0 0 -0.0258704 -0.0235382 -0.0158241 0.0369791 0 0 2.7312 0 0 
115 1 115 0.180051 0.58004 0 0 0.0062834 0.0124265 0.00600176 0.00838891 0 0 3.28827 0 0 
116 1 116 0.180033 0.62004 0 0 0.0349173 0.0236642 0.0187721 -0.0143477 0 0 3.82889 0 0 
117 1 117 0.180011 0.660045 0 0 0.0687564 0.0811027 0.0480005 -0.0040496 0 0 4.10346 0 0 
118 1 118 0.18 0.700051 0 0 0.0614861 0.0549413 0.037296 0.0218722 0 0 4.39524 0 0 
119 1 119 0.180004 0.740059 0 0 0.102825 0.123101 0.0723485 0.048337 0 0 4.83127 0 0 
120 1 120 0.180021 0.780067 0 0 0.071291 0.0529818 0.039809 0.067305 0 0 4.20425 0 0 
121 1 121 0.180042 0.820073 0 0 0.122513 0.125666 0.0794705 0.0629758 0 0 3.88965 0 0 
122 1 122 0.180059 0.860078 0 0 0.0974391 0.0230162 0.0385907 0.0546454 0 0 3.87033 0 0 
123 1 123 0.180073 0.900073 0 0 0.12761 0.0321659 0.0511803 0.0516873 0 0 5.33259 0 0 
124 1 124 0.180088 0.940067 0 0 0.100818 -0.00267042 0.0314427 0.0704131 0 0 6.18181 0 0 
125 1 125 0.180095 0.980062 0 0 0.0837528 0.023109 0.0342335 0.0379183 0 0 6.84493 0 0 
126 1 126 0.219997 0.0200052 0 0 0.0264803 0.068178 0.030326 -0.0231128 0 0 -0.41516 0 0 
127 1 127 0.219996 0.0600108 0 0 -0.00387573 0.0302612 0.00846261 -0.020751 0 0 -0.116033 0 0 
128 1 128 0.220002 0.100016 0 0 -0.0280337 0.00559871 -0.00718391 -0.0114191 0 0 0.922038 0 0 
129 1 129 0.220013 0.140021 0 0 -0.0225897 0.0365935 0.00448716 -0.00442411 0 0 1.60435 0 0 
130 1 130 0.220023 0.180026 0 0 -0.069345 -0.0230909 -0.0296239 -0.00935078 0 0 1.26543 0 0 
131 1 131 0.22003 0.220029 0 0 -0.086369 -0.00688842 -0.0298844 -0.0109547 0 0 1.20357 0 0 
132 1 132 0.220029 0.260038 0 0 -0.0951451 0.0247522 -0.0225538 -0.0119568 0 0 1.73057 0 0 
133 1 133 0.220018 0.300045 0 0 -0.135305 -0.0290696 -0.0526833 -0.0264305 0 0 2.01101 0 0 
134 1 134 0.22 0.340052 0 0 -0.115429 -0.0134279 -0.0412943 -0.0169815 0 0 1.82549 0 0 
135 1 135 0.219987 0.380055 0 0 -0.118187 -0.0622957 -0.0578471 0.00572605 0 0 1.91547 0 0 
136 1 136 0.21999 0.420053 0 0 -0.109631 -0.0690729 -0.0572768 0.0473586 0 0 1.22484 0 0 
137 1 137 0.220008 0.460051 0 0 -0.10459 -0.0566253 -0.0516693 0.0626069 0 0 1.33891 0 0 
138 1 138 0.22003 0.50005 0 0 -0.112933 -0.050686 -0.0524398 0.071061 0 0 1.69262 0 0 
139 1 139 0.220047 0.540052 0 0 -0.107292 -0.0339507 -0.0452639 0.0460603 0 0 2.79788 0 0 
140 1 140 0.220046 0.580057 0 0 -0.0839069 0.00103378 -0.0265514 0.0198268 0 0 4.22738 0 0 
141 1 141 0.220033 0.62006 0 0 -0.0787742 -0.0316012 -0.0353687 0.00741839 0 0 5.28539 0 0 
142 1 142 0.220015 0.660064 0 0 -0.014657 0.037604 0.007357 0.0076948 0 0 6.52233 0 0 
143 1 143 0.220006 0.700068 0 0 -0.0163547 -0.0117463 -0.00899863 0.0377429 0 0 6.75569 0 0 
144 1 144 0.220011 0.740071 0 0 0.0424207 0.0782898 0.0386694 0.0549114 0 0 6.97959 0 0 
145 1 145 0.220028 0.780079 0 0 0.0225533 0.0333061 0.0179018 0.0696785 0 0 6.28228 0 0 
146 1 146 0.22005 0.820084 0 0 0.0525885 0.0759867 0.0411884 0.0784666 0 0 5.29316 0 0 
147 1 147 0.220072 0.860089 0 0 0.0784785 0.0485033 0.0406781 0.0639668 0 0 5.77737 0 0 
148 1 148 0.220089 0.900089 0 0 0.0880358 0.0150264 0.0330201 0.0663326 0 0 6.87904 0 0 
149 1 149 0.220101 0.940084 0 0 0.0635977 0.00427122 0.0217468 0.0617325 0 0 7.52815 0 0 
150 1 150 0.220102 0.980084 0 0 0.0289307 0.0325103 0.0196892 0.0230806 0 0 7.91358 0 0 
151 1 151 0.259996 0.0199991 0 0 -0.0253813 -0.0307889 -0.0179972 -0.0307563 0 0 0.138309 0 0 
152 1 152 0.259992 0.0599973 0 0 -0.0259383 -0.000720729 -0.00853275 -0.0286224 0 0 0.820993 0 0 
153 1 153 0.259996 0.1 0 0 -0.0364427 -0.00279677 -0.0125659 -0.0215791 0 0 1.13985 0 0 
154 1 154 0.260005 0.140004 0 0 -0.0400381 0.0162146 -0.00762924 -0.0184981 0 0 1.11826 0 0 
155 1 155 0.260013 0.18001 0 0 -0.0625185 0.00614958 -0.0180613 -0.0277279 0 0 1.48043 0 0 
156 1 156 0.260016 0.220019 0 0 -0.0716219 0.0406524 -0.00992062 -0.0273516 0 0 1.79588 0 0 
157 1 157 0.26001 0.260033 0 0 -0.0926321 0.0651941 -0.00878833 -0.0376363 0 0 1.6426 0 0 
158 1 158 0.259997 0.300047 0 0 -0.133402 -6.9793e-05 -0.0427756 -0.0405993 0 0 1.29717 0 0 
159 1 159 0.259982 0.340058 0 0 -0.0894203 0.0244554 -0.020814 -0.0213594 0 0 1.06016 0 0 
160 1 160 0.259974 0.380062 0 0 -0.0920538 -0.0582861 -0.0481829 -0.002916 0 0 1.04536 0 0 
161 1 161 0.259978 0.420059 0 0 -0.0893794 -0.0626869 -0.0487378 0.0364127 0 0 0.295892 0 0 
162 1 162 0.259994 0.460057 0 0 -0.103971 -0.0441859 -0.0474866 0.0481071 0 0 0.425478 0 0 
163 1 163 0.260013 0.50006 0 0 -0.134688 -0.0461758 -0.0579743 0.0612986 0 0 0.440613 0 0 
164 1 164 0.260027 0.540065 0 0 -0.131688 -0.00658761 -0.0443151 0.0450165 0 0 1.22217 0 0 
165 1 165 0.260028 0.580075 0 0 -0.0996614 0.0196131 -0.0256465 0.0267256 0 0 2.3285 0 0 
166 1 166 0.260019 0.620082 0 0 -0.0682597 -0.0145234 -0.0265227 0.0200808 0 0 3.48566 0 0 
167 1 167 0.260007 0.660086 0 0 -4.17921e-05 0.0328236 0.010509 0.0207096 0 0 4.93306 0 0 
168 1 168 0.260002 0.700086 0 0 0.00156187 -0.026966 -0.00813237 0.0453459 0 0 5.40368 0 0 
169 1 169 0.26001 0.740086 0 0 0.0378837 0.0479828 0.0275127 0.0589281 0 0 5.98863 0 0 
170 1 170 0.260026 0.780091 0 0 0.0106411 0.0245371 0.0112773 0.064027 0 0 6.09894 0 0 
171 1 171 0.260048 0.820096 0 0 0.0126896 0.05492 0.0216651 0.0825667 0 0 5.89766 0 0 
172 1 172 0.260075 0.860102 0 0 0.00631342 0.0247151 0.0099464 0.0794356 0 0 6.7171 0 0 
173 1 173 0.260097 0.900103 0 0 0.0306883 0.0150873 0.0146714 0.0672957 0 0 7.94582 0 0 
174 1 174 0.260108 0.940103 0 0 0.0139899 -0.00668069 0.00234789 0.0455465 0 0 8.48275 0 0 
175 1 175 0.260101 0.980104 0 0 -0.0101835 0.0223505 0.00390636 0.00829241 0 0 8.48228 0 0 
176 1 176 0.299994 0.0199937 0 0 -0.0747442 -0.121025 -0.0627558 -0.0357954 0 0 1.1297 0 0 
177 1 177 0.299988 0.0599847 0 0 -0.067925 -0.0479685 -0.0371377 -0.0263038 0 0 2.25226 0 0 
178 1 178 0.299989 0.0999836 0 0 -0.0839803 -0.0443629 -0.0411274 -0.0242671 0 0 1.47688 0 0 
179 1 179 0.299995 0.139985 0 0 -0.083488 -0.015207 -0.0316237 -0.0212728 0 0 0.997628 0 0 
180 1 180 0.300001 0.179993 0 0 -0.0792968 0.0285986 -0.0162415 -0.0326401 0 0 1.92341 0 0 
181 1 181 0.299999 0.220006 0 0 -0.0970396 0.0532182 -0.0140374 -0.0414893 0 0 2.02222 0 0 
182 1 182 0.299988 0.260023 0 0 -0.113574 0.0698828 -0.0139957 -0.0559382 0 0 1.13989 0 0 
183 1 183 0.299975 0.300041 0 0 -0.107526 0.0501807 -0.0183715 -0.0439449 0 0 0.585165 0 0 
184 1 184 0.299968 0.340056 0 0 -0.064491 0.0394648 -0.00801354 -0.0210132 0 0 0.248015 0 0 
185 1 185 0.299966 0.38006 0 0 -0.0614574 -0.0343894 -0.0307107 -0.0156804 0 0 0.240226 0 0 
186 1 186 0.29997 0.42006 0 0 -0.0689196 -0.0425837 -0.0357317 0.0139043 0 0 -0.294048 0 0 
187 1 187 0.299981 0.460059 0 0 -0.0982586 -0.029272 -0.0408735 0.0222776 0 0 -0.1319 0 0 
188 1 188 0.299994 0.500065 0 0 -0.140418 -0.0161439 -0.0501823 0.036167 0 0 -0.0842198 0 0 
189 1 189 0.300004 0.540076 0 0 -0.17733 0.000899706 -0.0565508 0.028358 0 0 0.974507 0 0 
190 1 190 0.300006 0.58009 0 0 -0.183319 0.00964414 -0.0556645 0.0244408 0 0 2.58102 0 0 
191 1 191 0.300005 0.620101 0 0 -0.180474 -0.0557139 -0.0757135 0.0270755 0 0 4.63604 0 0 
192 1 192 0.300002 0.660105 0 0 -0.109112 -0.0176594 -0.0406231 0.026916 0 0 6.82807 0 0 
193 1 193 0.300002 0.700105 0 0 -0.112613 -0.0986825 -0.0677278 0.047276 0 0 7.31098 0 0 
194 1 194 0.30001 0.740102 0 0 -0.0656129 -0.0183657 -0.0269044 0.0559229 0 0 7.50571 0 0 
195 1 195 0.300023 0.780103 0 0 -0.0791074 -0.0378543 -0.0374792 0.0613265 0 0 7.44909 0 0 
196 1 196 0.300044 0.820106 0 0 -0.0576615 0.0207843 -0.0118102 0.0769763 0 0 7.38873 0 0 
197 1 197 0.300072 0.860113 0 0 -0.0506075 0.00782762 -0.0137025 0.0807688 0 0 7.98462 0 0 
198 1 198 0.300096 0.900116 0 0 -0.0336874 -0.0064351 -0.0128499 0.0721643 0 0 8.35922 0 0 
199 1 199 0.300107 0.940118 0 0 -0.0343638 -0.00676197 -0.0131726 0.0220714 0 0 8.76619 0 0 
200 1 200 0.300095 0.980121 0 0 -0.0462972 0.00888944 -0.0119788 -0.00941651 0 0 8.90105 0 0 
201 1 201 0.339991 0.0199905 0 0 -0.106784 -0.174641 -0.0902336 -0.0449883 0 0 1.52327 0 0 
202 1 202 0.339978 0.0599756 0 0 -0.113906 -0.106724 -0.0707257 -0.0257588 0 0 2.39761 0 0 
203 1 203 0.339976 0.0999696 0 0 -0.126429 -0.0856211 -0.0679728 -0.0191708 0 0 0.834561 0 0 
204 1 204 0.33998 0.139969 0 0 -0.119889 -0.0356208 -0.0498399 -0.0138407 0 0 0.28244 0 0 
205 1 205 0.339983 0.179977 0 0 -0.115752 0.0247397 -0.0291634 -0.0329458 0 0 1.30465 0 0 
206 1 206 0.339976 0.219992 0 0 -0.135077 0.0431465 -0.0294563 -0.0499143 0 0 1.3125 0 0 
207 1 207 0.339963 0.260011 0 0 -0.131526 0.0665502 -0.020816 -0.0552959 0 0 0.467642 0 0 
208 1 208 0.339954 0.300031 0 0 -0.0973179 0.0775256 -0.00633607 -0.0334339 0 0 -0.100278 0 0 
209 1 209 0.339953 0.340046 0 0 -0.0781236 0.0254022 -0.0168873 -0.0147996 0 0 -0.719291 0 0 
210 1 210 0.339958 0.380052 0 0 -0.0589256 -0.0198008 -0.0252207 -0.0137847 0 0 -0.682809 0 0 
211 1 211 0.339962 0.420055 0 0 -0.0434613 -0.00139936 -0.014368 -0.00209548 0 0 -0.485706 0 0 
212 1 212 0.339967 0.460057 0 0 -0.0977186 -0.0237801 -0.0389363 0.000493864 0 0 -0.430327 0 0 
213 1 213 0.339971 0.500067 0 0 -0.13091 0.0290821 -0.0326314 0.011396 0 0 -0.723929 0 0 
214 1 214 0.339973 0.540082 0 0 -0.173113 0.0224269 -0.0482941 0.0108409 0 0 -0.0213295 0 0 
215 1 215 0.339975 0.5801 0 0 -0.151654 0.0470049 -0.0335324 0.0229576 0 0 1.0427 0 0 
216 1 216 0.339979 0.620114 0 0 -0.137305 -0.0174957 -0.0496116 0.030993 0 0 2.80682 0 0 
217 1 217 0.339983 0.66012 0 0 -0.0821184 -0.010396 -0.0296419 0.0316846 0 0 4.64229 0 0 
218 1 218 0.339989 0.700119 0 0 -0.0792235 -0.0770786 -0.0500922 0.0379473 0 0 5.58845 0 0 
219 1 219 0.339998 0.740115 0 0 -0.068082 -0.0361622 -0.0334016 0.0424558 0 0 6.00133 0 0 
220 1 220 0.340009 0.780114 0 0 -0.107346 -0.0640627 -0.0549381 0.0467211 0 0 6.37435 0 0 
221 1 221 0.340028 0.820115 0 0 -0.114302 -0.0218377 -0.0436292 0.0659796 0 0 7.27994 0 0 
222 1 222 0.340057 0.86012 0 0 -0.122341 -0.024041 -0.0469139 0.0785034 0 0 8.13455 0 0 
223 1 223 0.340086 0.900125 0 0 -0.100246 -0.0219177 -0.0391479 0.0664507 0 0 8.43235 0 0 
224 1 224 0.340098 0.940129 0 0 -0.0873918 -0.0200458 -0.0344279 0.0114061 0 0 8.7844 0 0 
225 1 225 0.340085 0.980134 0 0 -0.0711367 0.00728334 -0.0204556 -0.0218385 0 0 9.09824 0 0 
226 1 226 0.379987 0.0199889 0 0 -0.123964 -0.199584 -0.103749 -0.0610436 0 0 1.85926 0 0 
227 1 227 0.379968 0.05997 0 0 -0.150054 -0.156696 -0.0983556 -0.029337 0 0 3.01115 0 0 
228 1 228 0.379961 0.0999614 0 0 -0.159276 -0.105211 -0.0847952 -0.0144208 0 0 1.1971 0 0 
229 1 229 0.37996 0.13996 0 0 -0.183028 -0.0712012 -0.0815041 -0.00905713 0 0 0.196112 0 0 
230 1 230 0.379958 0.179968 0 0 -0.195362 -0.0108701 -0.0661093 -0.0289212 0 0 0.987275 0 0 
231 1 231 0.379947 0.219983 0 0 -0.205742 0.0105367 -0.0625716 -0.0402753 0 0 1.20976 0 0 
232 1 232 0.379934 0.260002 0 0 -0.185644 0.0399876 -0.0466818 -0.0383452 0 0 0.359281 0 0 
233 1 233 0.379929 0.300021 0 0 -0.15587 0.0393123 -0.037351 -0.0141614 0 0 -0.727179 0 0 
234 1 234 0.379936 0.340035 0 0 -0.131469 -0.00231256 -0.0428718 -0.000398813 0 0 -1.06543 0 0 
235 1 235 0.379946 0.380042 0 0 -0.0992979 -0.0153609 -0.0367392 0.00213159 0 0 -0.653598 0 0 
236 1 236 0.379952 0.420049 0 0 -0.0857652 0.00134431 -0.0270465 -0.00719313 0 0 -0.123305 0 0 
237 1 237 0.37995 0.460054 0 0 -0.138043 -0.0265132 -0.0527401 -0.017509 0 0 0.0832003 0 0 
238 1 238 0.379945 0.500068 0 0 -0.1616 0.0415266 -0.0384782 -0.00404616 0 0 -0.249397 0 0 
239 1 239 0.379942 0.540086 0 0 -0.219091 0.0110975 -0.0666705 -0.00177525 0 0 0.845255 0 0 
240 1 240 0.379944 0.580105 0 0 -0.230035 0.01565 -0.0687203 0.0228899 0 0 2.24557 0 0 
241 1 241 0.379955 0.62012 0 0 -0.237278 -0.0503816 -0.0922296 0.0324267 0 0 4.61916 0 0 
242 1 242 0.379967 0.660127 0 0 -0.215865 -0.0814456 -0.0953266 0.0320448 0 0 6.59965 0 0 
243 1 243 0.379977 0.700126 0 0 -0.216861 -0.135021 -0.112841 0.0279993 0 0 7.28105 0 0 
244 1 244 0.379986 0.740122 0 0 -0.187676 -0.100577 -0.0924195 0.0225135 0 0 7.40418 0 0 
245 1 245 0.379994 0.780119 0 0 -0.201471 -0.122238 -0.103799 0.0257711 0 0 7.53033 0 0 
246 1 246 0.380009 0.820119 0 0 -0.188452 -0.066446 -0.0817189 0.0435739 0 0 8.25783 0 0 
247 1 247 0.380036 0.860122 0 0 -0.190394 -0.0669838 -0.0825158 0.0689385 0 0 8.47003 0 0 
248 1 248 0.380067 0.900128 0 0 -0.167488 -0.0321824 -0.064003 0.0595543 0 0 8.28397 0 0 
249 1 249 0.38008 0.940135 0 0 -0.151123 -0.0289488 -0.0577171 0.0012814 0 0 8.51858 0 0 
250 1 250 0.38007 0.980142 0 0 -0.114514 -0.0110577 -0.0402406 -0.0242423 0 0 9.03023 0 0 
251 1 251 0.419982 0.0199884 0 0 -0.117932 -0.19917 -0.101679 -0.0767066 0 0 1.40686 0 0 
252 1 252 0.419955 0.059968 0 0 -0.155323 -0.178765 -0.107127 -0.0356088 0 0 2.15326 0 0 
253 1 253 0.419942 0.0999583 0 0 -0.175955 -0.108041 -0.0910536 -0.0218645 0 0 0.530539 0 0 
254 1 254 0.419933 0.139956 0 0 -0.232074 -0.0993806 -0.106285 -0.017254 0 0 -0.389397 0 0 
255 1 255 0.419923 0.179964 0 0 -0.243667 -0.0312381 -0.0881395 -0.0294469 0 0 0.43506 0 0 
256 1 256 0.41991 0.219979 0 0 -0.25367 -0.0168843 -0.0867435 -0.0329185 0 0 0.706994 0 0 
257 1 257 0.419898 0.259996 0 0 -0.246359 -0.0100196 -0.0821952 -0.0301153 0 0 -0.0380888 0 0 
258 1 258 0.419897 0.300012 0 0 -0.225411 -0.0158401 -0.0773413 -0.00078161 0 0 -0.744099 0 0 
259 1 259 0.419911 0.340024 0 0 -0.194353 -0.0298602 -0.0718742 0.0163647 0 0 -0.395546 0 0 
260 1 260 0.419926 0.380034 0 0 -0.165047 -0.0215977 -0.0598236 0.00939685 0 0 0.114079 0 0 
261 1 261 0.419932 0.420043 0 0 -0.170095 -0.0202839 -0.0610219 -0.0142024 0 0 0.478067 0 0 
262 1 262 0.419925 0.460052 0 0 -0.197188 -0.0308332 -0.0730968 -0.0296628 0 0 0.994722 0 0 
263 1 263 0.419913 0.500069 0 0 -0.192376 0.0425442 -0.0480198 -0.0199106 0 0 0.651489 0 0 
264 1 264 0.419904 0.540088 0 0 -0.235768 -0.00638503 -0.0776275 -0.0130957 0 0 0.970766 0 0 
265 1 265 0.419905 0.580106 0 0 -0.211307 0.021398 -0.0608692 0.0190141 0 0 1.49623 0 0 
266 1 266 0.419919 0.620121 0 0 -0.201259 -0.0353023 -0.0758354 0.0344753 0 0 2.92322 0 0 
267 1 267 0.419937 0.660127 0 0 -0.167548 -0.0601631 -0.0729969 0.0294359 0 0 4.58391 0 0 
268 1 268 0.419951 0.700127 0 0 -0.177511 -0.10962 -0.0920602 0.0153107 0 0 5.51478 0 0 
269 1 269 0.419959 0.740122 0 0 -0.195774 -0.118024 -0.100618 0.00863986 0 0 5.64056 0 0 
270 1 270 0.419967 0.780118 0 0 -0.221007 -0.136557 -0.114666 0.00506246 0 0 6.5879 0 0 
271 1 271 0.41998 0.820116 0 0 -0.234296 -0.103903 -0.10845 0.0229098 0 0 7.89489 0 0 
272 1 272 0.420006 0.860117 0 0 -0.257863 -0.103234 -0.115802 0.0540803 0 0 8.04937 0 0 
273 1 273 0.420037 0.900125 0 0 -0.238328 -0.0404274 -0.089374 0.0467379 0 0 8.16929 0 0 
274 1 274 0.420053 0.940136 0 0 -0.215481 -0.035541 -0.0804759 0.00559105 0 0 8.37531 0 0 
275 1 275 0.42005 0.980146 0 0 -0.149016 -0.0138508 -0.0521994 -0.0165126 0 0 9.03751 0 0 
276 1 276 0.459979 0.0199891 0 0 -0.102321 -0.181068 -0.0908617 -0.0886976 0 0 0.921869 0 0 
277 1 277 0.459944 0.0599691 0 0 -0.156146 -0.18956 -0.110855 -0.0497227 0 0 1.38477 0 0 
278 1 278 0.459921 0.099958 0 0 -0.196877 -0.121863 -0.102202 -0.0426502 0 0 0.488398 0 0 
279 1 279 0.459902 0.139956 0 0 -0.26791 -0.116086 -0.12315 -0.0373354 0 0 0.0350163 0 0 
280 1 280 0.459884 0.179963 0 0 -0.295415 -0.0617563 -0.11454 -0.0417309 0 0 0.628746 0 0 
281 1 281 0.459867 0.219976 0 0 -0.320129 -0.0648882 -0.123479 -0.0411541 0 0 0.847867 0 0 
282 1 282 0.459856 0.25999 0 0 -0.315019 -0.0722954 -0.124216 -0.0308926 0 0 0.620407 0 0 
283 1 283 0.459859 0.300001 0 0 -0.288646 -0.0642925 -0.113181 0.00265707 0 0 0.504009 0 0 
284 1 284 0.459876 0.340013 0 0 -0.284334 -0.0659656 -0.112333 0.0164916 0 0 0.655803 0 0 
285 1 285 0.459893 0.380024 0 0 -0.288007 -0.0662865 -0.113615 0.00608458 0 0 0.773453 0 0 
286 1 286 0.459899 0.420037 0 0 -0.27479 -0.036975 -0.0999666 -0.0228949 0 0 1.57364 0 0 
287 1 287 0.459889 0.460051 0 0 -0.290463 -0.0527331 -0.110056 -0.0370302 0 0 2.13026 0 0 
288 1 288 0.459874 0.500069 0 0 -0.281762 -0.000270699 -0.0904266 -0.0347932 0 0 1.78932 0 0 
289 1 289 0.459863 0.540086 0 0 -0.324004 -0.0636426 -0.124321 -0.0227178 0 0 2.479 0 0 
290 1 290 0.459866 0.580102 0 0 -0.313308 -0.0404717 -0.113448 0.014808 0 0 3.49134 0 0 
291 1 291 0.459885 0.620115 0 0 -0.344602 -0.114543 -0.14728 0.0302843 0 0 4.93153 0 0 
292 1 292 0.459908 0.66012 0 0 -0.345496 -0.147532 -0.158164 0.0270211 0 0 6.22819 0 0 
293 1 293 0.459925 0.700121 0 0 -0.329784 -0.165167 -0.158781 0.00213289 0 0 7.33336 0 0 
294 1 294 0.459932 0.740117 0 0 -0.327629 -0.192749 -0.166949 -0.00182875 0 0 7.15124 0 0 
295 1 295 0.459939 0.780111 0 0 -0.31754 -0.184977 -0.161213 -0.00522944 0 0 7.68453 0 0 
296 1 296 0.459948 0.820108 0 0 -0.303914 -0.149689 -0.145502 0.0073591 0 0 8.62099 0 0 
297 1 297 0.459969 0.860108 0 0 -0.318554 -0.135408 -0.145618 0.042053 0 0 8.25759 0 0 
298 1 298 0.459997 0.900117 0 0 -0.304079 -0.0463675 -0.112381 0.0349998 0 0 8.27619 0 0 
299 1 299 0.460016 0.940132 0 0 -0.281492 -0.0405481 -0.103265 0.0152664 0 0 8.05528 0 0 
300 1 300 0.460023 0.980146 0 0 -0.205104 -0.0199855 -0.0721562 -0.000309008 0 0 8.58363 0 0 
301 1 301 0.499977 0.0199902 0 0 -0.0698621 -0.152768 -0.0713697 -0.0948346 0 0 0.0523824 0 0 
302 1 302 0.499936 0.0599707 0 0 -0.111607 -0.175555 -0.0920679 -0.0743189 0 0 -0.0859781 0 0 
303 1 303 0.4999 0.0999579 0 0 -0.164442 -0.120006 -0.0911978 -0.0744808 0 0 -0.010471 0 0 
304 1 304 0.499869 0.139955 0 0 -0.244971 -0.106502 -0.112709 -0.0672525 0 0 0.098846 0 0 
305 1 305 0.499841 0.179961 0 0 -0.296527 -0.080079 -0.120779 -0.0629679 0 0 0.207645 0 0 
306 1 306 0.49982 0.21997 0 0 -0.328151 -0.094541 -0.135575 -0.0516811 0 0 0.504111 0 0 
307 1 307 0.49981 0.25998 0 0 -0.329965 -0.0988341 -0.137535 -0.0331908 0 0 0.935603 0 0 
308 1 308 0.499815 0.299988 0 0 -0.343445 -0.115633 -0.147258 -0.003794 0 0 1.1349 0 0 
309 1 309 0.49983 0.339998 0 0 -0.358209 -0.0938447 -0.145002 -0.00135329 0 0 1.56507 0 0 
310 1 310 0.499845 0.380011 0 0 -0.381862 -0.0909838 -0.151681 -0.00332921 0 0 1.70626 0 0 
311 1 311 0.49985 0.420028 0 0 -0.36837 -0.0499458 -0.13417 -0.0300847 0 0 2.48435 0 0 
312 1 312 0.49984 0.460046 0 0 -0.380872 -0.0759765 -0.146547 -0.0510477 0 0 2.87691 0 0 
313 1 313 0.499823 0.500065 0 0 -0.364439 -0.0480524 -0.132303 -0.0476763 0 0 2.31507 0 0 
314 1 314 0.499812 0.540081 0 0 -0.361925 -0.0970286 -0.14722 -0.0273796 0 0 2.61446 0 0 
315 1 315 0.499817 0.580093 0 0 -0.311475 -0.0637007 -0.120318 0.0070064 0 0 2.77145 0 0 
316 1 316 0.499837 0.620103 0 0 -0.308017 -0.110223 -0.134144 0.0208853 0 0 3.15521 0 0 
317 1 317 0.499862 0.660107 0 0 -0.295805 -0.124485 -0.134803 0.0220035 0 0 3.83478 0 0 
318 1 318 0.499882 0.700108 0 0 -0.29456 -0.137694 -0.138644 -0.00723633 0 0 5.15053 0 0 
319 1 319 0.499892 0.740106 0 0 -0.315309 -0.183488 -0.160016 -0.014014 0 0 5.85795 0 0 
320 1 320 0.499899 0.7801 0 0 -0.320666 -0.183845 -0.161853 -0.0156508 0 0 7.32113 0 0 
321 1 321 0.499907 0.820096 0 0 -0.336168 -0.176001 -0.164313 -0.00549738 0 0 8.46899 0 0 
322 1 322 0.499924 0.860096 0 0 -0.362546 -0.150898 -0.164724 0.022139 0 0 8.26556 0 0 
323 1 323 0.499947 0.900107 0 0 -0.363472 -0.0635061 -0.136952 0.0192567 0 0 8.51213 0 0 
324 1 324 0.499969 0.940125 0 0 -0.34302 -0.0464921 -0.124924 0.0271935 0 0 7.98877 0 0 
325 1 325 0.499987 0.980143 0 0 -0.265926 -0.0180126 -0.091036 0.0139142 0 0 8.47829 0 0 
326 1 326 0.539977 0.0199907 0 0 -0.0664411 -0.147581 -0.0686084 -0.0950885 0 0 -0.577184 0 0 
327 1 327 0.539931 0.059971 0 0 -0.112831 -0.180201 -0.0939528 -0.100344 0 0 -0.873462 0 0 
328 1 328 0.539884 0.0999568 0 0 -0.172858 -0.13616 -0.0990828 -0.107139 0 0 0.246116 0 0 
329 1 329 0.539838 0.139952 0 0 -0.249119 -0.120531 -0.118544 -0.0963288 0 0 0.741251 0 0 
330 1 330 0.539801 0.179955 0 0 -0.297057 -0.102382 -0.12811 -0.0828106 0 0 0.438126 0 0 