ITEM: TIMESTEP
0
ITEM: NUMBER OF ATOMS
7127
ITEM: BOX BOUNDS sm sm sm
0 4
0 2
0 0
ITEM: ATOMS id type tag x y z vx 
0 1 0 0 0 0 0 
1 1 1 0 0.04 0 0 
2 1 2 0 0.08 0 0 
3 1 3 0 0.12 0 0 
4 1 4 0 0.16 0 0 
5 1 5 0 0.2 0 0 
6 1 6 0 0.24 0 0 
7 1 7 0 0.28 0 0 
8 1 8 0 0.32 0 0 
9 1 9 0 0.36 0 0 
10 1 10 0 0.4 0 0 
11 1 11 0 0.44 0 0 
12 1 12 0 0.48 0 0 
13 1 13 0 0.52 0 0 
14 1 14 0 0.56 0 0 
15 1 15 0 0.6 0 0 
16 1 16 0 0.64 0 0 
17 1 17 0 0.68 0 0 
18 1 18 0 0.72 0 0 
19 1 19 0 0.76 0 0 
20 1 20 0 0.8 0 0 
21 1 21 0 0.84 0 0 
22 1 22 0 0.88 0 0 
23 1 23 0 0.92 0 0 
24 1 24 0 0.96 0 0 
25 1 25 0 1 0 0 
26 1 26 0.04 0 0 0 
27 1 27 0.0400011 0.0399875 0 0.697361 
28 1 28 0.0400018 0.0799758 0 0.956274 
29 1 29 0.0399914 0.119968 0 0.812582 
30 1 30 0.0399787 0.15997 0 0.456697 
31 1 31 0.0399706 0.199973 0 -0.0451906 
32 1 32 0.0399662 0.239978 0 -0.639273 
33 1 33 0.0399621 0.279977 0 -1.08377 
34 1 34 0.0399578 0.319975 0 -1.28448 
35 1 35 0.0399533 0.359968 0 -1.36007 
36 1 36 0.0399459 0.399964 0 -1.40114 
37 1 37 0.0399382 0.43996 0 -1.36833 
38 1 38 0.0399288 0.479964 0 -1.34907 
39 1 39 0.0399218 0.519968 0 -1.25275 
40 1 40 0.0399132 0.55998 0 -1.1818 
41 1 41 0.0399111 0.59999 0 -0.979766 
42 1 42 0.0399045 0.640007 0 -0.936321 
43 1 43 0.0399114 0.680015 0 -0.627992 
44 1 44 0.0399002 0.720031 0 -0.720475 
45 1 45 0.0399158 0.760033 0 -0.71195 
46 1 46 0.0398988 0.800047 0 -0.540188 
47 1 47 0.039908 0.840051 0 -0.712555 
48 1 48 0.0398915 0.880073 0 -0.348147 
49 1 49 0.0398922 0.920092 0 0.0246961 
50 1 50 0.0398781 0.960134 0 0.350835 
51 1 51 0.0397749 1.00023 0 0.378913 
52 1 52 0.08 0 0 0 
53 1 53 0.0800155 0.0399844 0 0.681435 
54 1 54 0.0800031 0.0799585 0 1.46924 
55 1 55 0.0799765 0.119941 0 1.93426 
56 1 56 0.079953 0.159939 0 1.29993 
57 1 57 0.0799363 0.199938 0 -0.024551 
58 1 58 0.0799272 0.239943 0 -1.17378 
59 1 59 0.0799227 0.279942 0 -1.84773 
60 1 60 0.0799175 0.31994 0 -2.12037 
61 1 61 0.0799086 0.359932 0 -2.13232 
62 1 62 0.0798936 0.399929 0 -2.06954 
63 1 63 0.0798766 0.439927 0 -1.95909 
64 1 64 0.0798556 0.479935 0 -1.91224 
65 1 65 0.0798387 0.519947 0 -1.77033 
66 1 66 0.0798205 0.559967 0 -1.64972 
67 1 67 0.079814 0.59999 0 -1.3044 
68 1 68 0.0798029 0.640016 0 -1.12724 
69 1 69 0.079811 0.680039 0 -0.790771 
70 1 70 0.0798037 0.720062 0 -0.748571 
71 1 71 0.0798126 0.760081 0 -0.965099 
72 1 72 0.0798035 0.8001 0 -1.06025 
73 1 73 0.0797957 0.840128 0 -1.32741 
74 1 74 0.079781 0.880155 0 -0.583558 
75 1 75 0.079757 0.920209 0 0.00075846 
76 1 76 0.0797187 0.960274 0 0.425009 
77 1 77 0.0796448 1.00033 0 0.850188 
78 1 78 0.12 0 0 0 
79 1 79 0.120021 0.0399729 0 0.172196 
80 1 80 0.12 0.0799449 0 1.59904 
81 1 81 0.119961 0.119924 0 2.80236 
82 1 82 0.119926 0.159914 0 2.00732 
83 1 83 0.119898 0.199907 0 0.210975 
84 1 84 0.119885 0.239908 0 -1.20468 
85 1 85 0.119881 0.279905 0 -2.04886 
86 1 86 0.119874 0.319903 0 -2.32973 
87 1 87 0.119862 0.359899 0 -2.16489 
88 1 88 0.11984 0.399899 0 -1.91481 
89 1 89 0.119813 0.439903 0 -1.66514 
90 1 90 0.119781 0.479914 0 -1.50888 
91 1 91 0.119753 0.519935 0 -1.29749 
92 1 92 0.119726 0.559961 0 -1.07559 
93 1 93 0.119711 0.599995 0 -0.716027 
94 1 94 0.1197 0.640028 0 -0.374582 
95 1 95 0.119702 0.680063 0 -0.19053 
96 1 96 0.119703 0.720096 0 -0.296455 
97 1 97 0.119706 0.760127 0 -0.595835 
98 1 98 0.119694 0.800162 0 -1.21794 
99 1 99 0.119682 0.840198 0 -1.62478 
100 1 100 0.119654 0.880248 0 -0.771656 
101 1 101 0.119616 0.920303 0 -0.0764021 
102 1 102 0.119579 0.960363 0 0.507 
103 1 103 0.119534 1.00042 0 1.01642 
104 1 104 0.16 0 0 0 
105 1 105 0.160013 0.0399638 0 -0.161098 
106 1 106 0.159988 0.0799408 0 1.41915 
107 1 107 0.159942 0.119921 0 2.90941 
108 1 108 0.159896 0.159903 0 2.36531 
109 1 109 0.15986 0.19989 0 0.731462 
110 1 110 0.159843 0.239884 0 -0.738709 
111 1 111 0.159837 0.279879 0 -1.65769 
112 1 112 0.159828 0.319877 0 -1.80928 
113 1 113 0.159812 0.359877 0 -1.4172 
114 1 114 0.159784 0.39988 0 -0.947683 
115 1 115 0.159748 0.43989 0 -0.509244 
116 1 116 0.159705 0.479906 0 -0.226294 
117 1 117 0.159665 0.519931 0 0.0087905 
118 1 118 0.159629 0.559963 0 0.280922 
119 1 119 0.159606 0.6 0 0.547333 
120 1 120 0.159593 0.640041 0 0.849731 
121 1 121 0.15959 0.68008 0 0.932987 
122 1 122 0.15959 0.720126 0 0.483617 
123 1 123 0.159592 0.760165 0 -0.0387778 
124 1 124 0.159574 0.800214 0 -0.919202 
125 1 125 0.159558 0.84026 0 -1.42856 
126 1 126 0.159521 0.880314 0 -0.867754 
127 1 127 0.159486 0.920369 0 -0.298799 
128 1 128 0.159456 0.960425 0 0.46993 
129 1 129 0.159411 1.00049 0 0.956666 
130 1 130 0.2 0 0 0 
131 1 131 0.199994 0.0399643 0 -0.316527 
132 1 132 0.199963 0.0799454 0 1.079 
133 1 133 0.199917 0.119925 0 2.70741 
134 1 134 0.199868 0.159903 0 2.63777 
135 1 135 0.199828 0.199885 0 1.33265 
136 1 136 0.199804 0.239871 0 -0.0298593 
137 1 137 0.199793 0.279864 0 -0.877866 
138 1 138 0.19978 0.319864 0 -0.975401 
139 1 139 0.19976 0.359867 0 -0.492341 
140 1 140 0.199725 0.399876 0 0.133954 
141 1 141 0.199681 0.439889 0 0.756943 
142 1 142 0.199628 0.47991 0 1.20803 
143 1 143 0.199579 0.519936 0 1.5402 
144 1 144 0.199534 0.559972 0 1.88134 
145 1 145 0.199503 0.600008 0 2.09325 
146 1 146 0.199484 0.640054 0 2.23737 
147 1 147 0.199476 0.680098 0 2.05363 
148 1 148 0.199473 0.720147 0 1.383 
149 1 149 0.199467 0.760201 0 0.558192 
150 1 150 0.199449 0.800254 0 -0.597188 
151 1 151 0.19943 0.840313 0 -1.02862 
152 1 152 0.19939 0.880368 0 -0.676836 
153 1 153 0.199359 0.920418 0 -0.400823 
154 1 154 0.199327 0.960479 0 0.199901 
155 1 155 0.199287 1.00053 0 0.539193 
156 1 156 0.24 0 0 0 
157 1 157 0.239967 0.0399663 0 -0.325289 
158 1 158 0.239932 0.0799496 0 0.783921 
159 1 159 0.239892 0.119932 0 2.22033 
160 1 160 0.239845 0.159909 0 2.4421 
161 1 161 0.2398 0.199888 0 1.67143 
162 1 162 0.239769 0.239869 0 0.645014 
163 1 163 0.23975 0.279862 0 -0.191095 
164 1 164 0.239731 0.319862 0 -0.390777 
165 1 165 0.239705 0.359869 0 0.0953237 
166 1 166 0.239665 0.399884 0 0.817392 
167 1 167 0.239613 0.4399 0 1.61185 
168 1 168 0.239552 0.479926 0 2.26039 
169 1 169 0.239493 0.519952 0 2.71026 
170 1 170 0.239439 0.559988 0 3.11202 
171 1 171 0.239399 0.600024 0 3.20832 
172 1 172 0.239374 0.640067 0 3.22017 
173 1 173 0.239355 0.680117 0 2.76422 
174 1 174 0.239347 0.720167 0 1.83413 
175 1 175 0.239335 0.760229 0 1.03903 
176 1 176 0.239311 0.800291 0 -0.121337 
177 1 177 0.239294 0.840352 0 -0.634967 
178 1 178 0.239262 0.880416 0 -0.465835 
179 1 179 0.239235 0.920465 0 -0.349577 
180 1 180 0.239201 0.960522 0 -0.281534 
181 1 181 0.239163 1.00058 0 -0.430813 
182 1 182 0.28 0 0 0 
183 1 183 0.279941 0.0399696 0 0.0115161 
184 1 184 0.279902 0.0799548 0 0.601078 
185 1 185 0.279869 0.119939 0 1.36057 
186 1 186 0.279825 0.159916 0 1.77409 
187 1 187 0.279778 0.199894 0 1.65102 
188 1 188 0.27974 0.239873 0 0.886028 
189 1 189 0.27971 0.279866 0 -0.0268074 
190 1 190 0.279679 0.319868 0 -0.393838 
191 1 191 0.279646 0.35988 0 -0.0836954 
192 1 192 0.279598 0.3999 0 0.587169 
193 1 193 0.27954 0.43992 0 1.50269 
194 1 194 0.279472 0.479948 0 2.39491 
195 1 195 0.279405 0.519975 0 3.05402 
196 1 196 0.279346 0.560008 0 3.64484 
197 1 197 0.279296 0.600044 0 3.74448 
198 1 198 0.279263 0.640084 0 3.60215 
199 1 199 0.279235 0.680134 0 3.06682 
200 1 200 0.279215 0.720189 0 1.97066 
201 1 201 0.279197 0.760253 0 1.12101 
202 1 202 0.279173 0.800321 0 0.380215 
203 1 203 0.279152 0.840388 0 -0.0350605 
204 1 204 0.279131 0.880451 0 -0.269212 
205 1 205 0.279112 0.920507 0 -0.364368 
206 1 206 0.279074 0.960566 0 -0.881611 
207 1 207 0.27904 1.00062 0 -1.55699 
208 1 208 0.32 0 0 0 
209 1 209 0.319923 0.0399764 0 0.549437 
210 1 210 0.31988 0.0799615 0 0.477638 
211 1 211 0.31985 0.119945 0 0.369288 
212 1 212 0.31981 0.159923 0 0.787186 
213 1 213 0.319762 0.199902 0 1.04167 
214 1 214 0.319713 0.239881 0 0.437243 
215 1 215 0.319668 0.279874 0 -0.521512 
216 1 216 0.319624 0.319879 0 -1.16272 
217 1 217 0.31958 0.359894 0 -1.17901 
218 1 218 0.319524 0.399918 0 -0.598666 
219 1 219 0.319461 0.439943 0 0.43563 
220 1 220 0.319389 0.479973 0 1.62034 
221 1 221 0.319316 0.52 0 2.5806 
222 1 222 0.31925 0.560031 0 3.38544 
223 1 223 0.319192 0.600064 0 3.61457 
224 1 224 0.319148 0.640104 0 3.38302 
225 1 225 0.319111 0.680152 0 2.79647 
226 1 226 0.31908 0.720209 0 1.89265 
227 1 227 0.319051 0.760277 0 1.15525 
228 1 228 0.319029 0.800347 0 0.7618 
229 1 229 0.319011 0.840418 0 0.637189 
230 1 230 0.318997 0.880484 0 0.101434 
231 1 231 0.318986 0.92054 0 -0.4125 
232 1 232 0.318951 0.960601 0 -1.52488 
233 1 233 0.318922 1.00065 0 -2.59813 
234 1 234 0.36 0 0 0 
235 1 235 0.359918 0.0399837 0 1.1596 
236 1 236 0.359871 0.0799657 0 0.481892 
237 1 237 0.35984 0.119948 0 -0.590524 
238 1 238 0.3598 0.159929 0 -0.493376 
239 1 239 0.359748 0.199909 0 -0.0799666 
240 1 240 0.359688 0.239891 0 -0.499257 
241 1 241 0.359626 0.279886 0 -1.48116 
242 1 242 0.359565 0.319892 0 -2.39181 
243 1 243 0.359507 0.359911 0 -2.71139 
244 1 244 0.359443 0.399939 0 -2.24862 
245 1 245 0.359375 0.439966 0 -1.1402 
246 1 246 0.3593 0.479997 0 0.32043 
247 1 247 0.359225 0.520024 0 1.63158 
248 1 248 0.359156 0.560054 0 2.69973 
249 1 249 0.359092 0.600084 0 3.11482 
250 1 250 0.359039 0.640122 0 2.97921 
251 1 251 0.358989 0.68017 0 2.4451 
252 1 252 0.358947 0.720228 0 1.76025 
253 1 253 0.358911 0.760296 0 1.36735 
254 1 254 0.358887 0.800368 0 1.35768 
255 1 255 0.358871 0.840438 0 1.33071 
256 1 256 0.358867 0.880506 0 0.540312 
257 1 257 0.358861 0.920568 0 -0.33665 
258 1 258 0.35883 0.960627 0 -1.87722 
259 1 259 0.358809 1.00068 0 -3.14243 
260 1 260 0.4 0 0 0 
261 1 261 0.399924 0.039989 0 1.54071 
262 1 262 0.399873 0.0799683 0 0.401611 
263 1 263 0.399835 0.11995 0 -1.44507 
264 1 264 0.39979 0.159934 0 -1.71935 
265 1 265 0.399734 0.199918 0 -1.26653 
266 1 266 0.399661 0.239904 0 -1.51964 
267 1 267 0.39958 0.279901 0 -2.40429 
268 1 268 0.399501 0.319909 0 -3.42791 
269 1 269 0.399428 0.359929 0 -4.01299 
270 1 270 0.399355 0.399959 0 -3.71776 
271 1 271 0.399284 0.439989 0 -2.59219 
272 1 272 0.399209 0.480021 0 -0.916287 
273 1 273 0.399134 0.520048 0 0.686624 
274 1 274 0.399063 0.560075 0 2.00369 
275 1 275 0.398992 0.600104 0 2.59048 
276 1 276 0.39893 0.640141 0 2.53814 
277 1 277 0.39887 0.680187 0 2.20332 
278 1 278 0.398818 0.720245 0 1.81967 
279 1 279 0.398775 0.76031 0 1.69745 
280 1 280 0.398752 0.800381 0 2.07021 
281 1 281 0.398737 0.840449 0 2.13545 
282 1 282 0.398737 0.880517 0 1.05929 
283 1 283 0.398737 0.920582 0 -0.116633 
284 1 284 0.398714 0.960643 0 -1.7908 
285 1 285 0.398701 1.0007 0 -3.02163 
286 1 286 0.44 0 0 0 
287 1 287 0.439939 0.0399913 0 1.48947 
288 1 288 0.439884 0.0799686 0 0.187515 
289 1 289 0.439834 0.119951 0 -1.92518 
290 1 290 0.439782 0.159938 0 -2.49008 
291 1 291 0.439718 0.199926 0 -2.14942 
292 1 292 0.439632 0.239919 0 -2.21394 
293 1 293 0.439534 0.279918 0 -2.79537 
294 1 294 0.439437 0.319928 0 -3.72619 
295 1 295 0.439349 0.35995 0 -4.43479 
296 1 296 0.439267 0.39998 0 -4.25478 
297 1 297 0.439193 0.440012 0 -3.20985 
298 1 298 0.43912 0.480043 0 -1.50271 
299 1 299 0.439048 0.52007 0 0.18919 
300 1 300 0.438977 0.560096 0 1.56319 
301 1 301 0.438904 0.600124 0 2.26769 
302 1 302 0.438833 0.64016 0 2.28877 
303 1 303 0.438764 0.680203 0 2.13716 
304 1 304 0.438703 0.720259 0 2.14838 
305 1 305 0.438653 0.76032 0 2.27998 
306 1 306 0.438629 0.800386 0 2.78693 
307 1 307 0.438615 0.840452 0 2.83558 
308 1 308 0.438616 0.880519 0 1.56322 
309 1 309 0.438616 0.920586 0 0.193702 
310 1 310 0.4386 0.960647 0 -1.36196 
311 1 311 0.438594 1.0007 0 -2.37124 
312 1 312 0.48 0 0 0 
313 1 313 0.479955 0.0399895 0 0.908332 
314 1 314 0.479896 0.0799662 0 -0.271931 
315 1 315 0.479832 0.11995 0 -2.09849 
316 1 316 0.47977 0.159941 0 -2.74751 
317 1 317 0.479698 0.199935 0 -2.46839 
318 1 318 0.479601 0.239935 0 -2.19132 
319 1 319 0.479489 0.279938 0 -2.25496 
320 1 320 0.479376 0.319951 0 -2.87874 
321 1 321 0.479274 0.359972 0 -3.57839 
322 1 322 0.479184 0.400001 0 -3.55489 
323 1 323 0.479108 0.440034 0 -2.78566 
324 1 324 0.479038 0.480064 0 -1.30915 
325 1 325 0.478967 0.520092 0 0.23275 
326 1 326 0.478897 0.560117 0 1.4392 
327 1 327 0.47882 0.600144 0 2.10796 
328 1 328 0.478742 0.640179 0 2.18061 
329 1 329 0.478665 0.680219 0 2.1637 
330 1 330 0.478596 0.720271 0 2.46513 
331 1 331 0.478542 0.760325 0 2.78606 
332 1 332 0.478516 0.800386 0 3.29428 
333 1 333 0.4785 0.840447 0 3.25359 
334 1 334 0.478498 0.880512 0 1.93854 
335 1 335 0.478497 0.92058 0 0.613651 
336 1 336 0.478489 0.960641 0 -0.539555 
337 1 337 0.47849 1.0007 0 -1.16731 
338 1 338 0.52 0 0 0 
339 1 339 0.519968 0.039985 0 -0.0611907 
340 1 340 0.519906 0.0799634 0 -0.844399 
341 1 341 0.51983 0.11995 0 -1.85069 
342 1 342 0.519757 0.159944 0 -2.32069 
343 1 343 0.519676 0.199944 0 -2.08916 
344 1 344 0.51957 0.239952 0 -1.49116 
345 1 345 0.519448 0.27996 0 -0.976487 
346 1 346 0.519323 0.319975 0 -1.13251 
347 1 347 0.519209 0.359996 0 -1.67696 
348 1 348 0.519112 0.400023 0 -1.80539 
349 1 349 0.519033 0.440055 0 -1.45358 
350 1 350 0.518964 0.480084 0 -0.476746 
351 1 351 0.518896 0.520112 0 0.620519 
352 1 352 0.518826 0.560138 0 1.43452 
353 1 353 0.518747 0.600165 0 1.92177 
354 1 354 0.518662 0.640199 0 2.00618 
355 1 355 0.518578 0.680235 0 2.13464 
356 1 356 0.518504 0.720282 0 2.68721 
357 1 357 0.518446 0.760328 0 3.08775 
358 1 358 0.518416 0.800382 0 3.42523 
359 1 359 0.518395 0.840437 0 3.23984 
360 1 360 0.518386 0.880498 0 2.01931 
361 1 361 0.51838 0.920565 0 0.910271 
362 1 362 0.518376 0.960627 0 0.317846 
363 1 363 0.518383 1.00068 0 0.150209 
364 1 364 0.56 0 0 0 
365 1 365 0.559972 0.0399799 0 -1.12266 
366 1 366 0.559906 0.079962 0 -1.40391 
367 1 367 0.559822 0.119952 0 -1.39482 
368 1 368 0.559738 0.159949 0 -1.56872 
369 1 369 0.559648 0.199955 0 -1.37657 
370 1 370 0.559538 0.23997 0 -0.4931 
371 1 371 0.559412 0.279983 0 0.58325 
372 1 372 0.55928 0.32 0 0.965401 
373 1 373 0.559156 0.360021 0 0.692155 
374 1 374 0.559051 0.400044 0 0.444446 
375 1 375 0.558967 0.440074 0 0.303721 
376 1 376 0.558897 0.480101 0 0.611177 
377 1 377 0.558829 0.520129 0 1.07192 
378 1 378 0.558756 0.560157 0 1.35793 
379 1 379 0.558673 0.600185 0 1.60493 
380 1 380 0.558581 0.640218 0 1.71161 
381 1 381 0.558492 0.680251 0 1.95502 
382 1 382 0.558415 0.720291 0 2.67084 
383 1 383 0.558353 0.760329 0 3.0841 
384 1 384 0.558319 0.800375 0 3.16681 
385 1 385 0.558292 0.840424 0 2.83979 
386 1 386 0.558275 0.880482 0 1.88362 
387 1 387 0.558263 0.920546 0 1.16628 
388 1 388 0.558266 0.960606 0 1.20475 
389 1 389 0.558278 1.00066 0 1.50005 
390 1 390 0.6 0 0 0 
391 1 391 0.599966 0.039977 0 -1.97722 
392 1 392 0.599899 0.0799647 0 -1.81794 
393 1 393 0.59981 0.119958 0 -0.902141 
394 1 394 0.599717 0.159959 0 -0.769613 
395 1 395 0.599619 0.19997 0 -0.634456 
396 1 396 0.599504 0.239989 0 0.402785 
397 1 397 0.599379 0.280007 0 1.89744 
398 1 398 0.599243 0.320025 0 2.81933 
399 1 399 0.599113 0.360044 0 2.92437 
400 1 400 0.599001 0.400064 0 2.62288 
401 1 401 0.59891 0.440089 0 1.99974 
402 1 402 0.598836 0.480115 0 1.59457 
403 1 403 0.598764 0.520144 0 1.38359 
404 1 404 0.598688 0.560173 0 1.16759 
405 1 405 0.598601 0.600203 0 1.22665 
406 1 406 0.598506 0.640236 0 1.45099 
407 1 407 0.598413 0.680266 0 1.85108 
408 1 408 0.598334 0.7203 0 2.64513 
409 1 409 0.598269 0.76033 0 2.9804 
410 1 410 0.598227 0.800368 0 2.74278 
411 1 411 0.598192 0.840412 0 2.26593 
412 1 412 0.598165 0.880464 0 1.65956 
413 1 413 0.598147 0.920524 0 1.40418 
414 1 414 0.598153 0.960582 0 2.01337 
415 1 415 0.598169 1.00064 0 2.69744 
416 1 416 0.64 0 0 0 
417 1 417 0.639953 0.0399781 0 -2.32602 
418 1 418 0.639881 0.0799721 0 -1.88873 
419 1 419 0.639791 0.119969 0 -0.452094 
420 1 420 0.639689 0.159973 0 -0.156591 
421 1 421 0.639582 0.199988 0 -0.153659 
422 1 422 0.639466 0.24001 0 0.820652 
423 1 423 0.639342 0.28003 0 2.4647 
424 1 424 0.639207 0.320049 0 3.82053 
425 1 425 0.639074 0.360064 0 4.39063 
426 1 426 0.638957 0.40008 0 4.21336 
427 1 427 0.638858 0.440101 0 3.32526 
428 1 428 0.638775 0.480124 0 2.36876 
429 1 429 0.638697 0.520154 0 1.59481 
430 1 430 0.638613 0.560186 0 0.997774 
431 1 431 0.638522 0.600218 0 0.959244 
432 1 432 0.638423 0.640251 0 1.37442 
433 1 433 0.638329 0.680278 0 1.9512 
434 1 434 0.63825 0.720306 0 2.75055 
435 1 435 0.638181 0.760331 0 2.96739 
436 1 436 0.638132 0.800363 0 2.42893 
437 1 437 0.638089 0.8404 0 1.81753 
438 1 438 0.638055 0.880448 0 1.54971 
439 1 439 0.638032 0.920501 0 1.66744 
440 1 440 0.638042 0.960556 0 2.59978 
441 1 441 0.638062 1.00061 0 3.49763 
442 1 442 0.68 0 0 0 
443 1 443 0.679935 0.0399836 0 -2.15791 
444 1 444 0.679858 0.0799838 0 -1.70213 
445 1 445 0.679766 0.119984 0 -0.253961 
446 1 446 0.679657 0.159992 0 0.0501081 
447 1 447 0.67954 0.200008 0 -0.0491107 
448 1 448 0.679421 0.24003 0 0.77406 
449 1 449 0.679301 0.280053 0 2.39649 
450 1 450 0.67917 0.320069 0 4.11503 
451 1 451 0.679038 0.360082 0 5.2071 
452 1 452 0.678916 0.400093 0 5.28268 
453 1 453 0.678807 0.440108 0 4.31283 
454 1 454 0.678715 0.48013 0 2.98195 
455 1 455 0.678628 0.520159 0 1.82016 
456 1 456 0.678538 0.560194 0 1.04668 
457 1 457 0.678444 0.600229 0 1.0631 
458 1 458 0.678346 0.640262 0 1.75349 
459 1 459 0.678252 0.680288 0 2.5077 
460 1 460 0.678174 0.720311 0 3.20604 
461 1 461 0.678102 0.760331 0 3.2284 
462 1 462 0.678043 0.800358 0 2.40673 
463 1 463 0.67799 0.840391 0 1.66698 
464 1 464 0.677948 0.880434 0 1.68916 
465 1 465 0.677922 0.92048 0 2.10129 
466 1 466 0.677933 0.96053 0 3.15391 
467 1 467 0.677955 1.00058 0 4.10829 
468 1 468 0.72 0 0 0 
469 1 469 0.719916 0.0399917 0 -1.55161 
470 1 470 0.719831 0.079997 0 -1.2404 
471 1 471 0.719735 0.120001 0 -0.142265 
472 1 472 0.719617 0.160013 0 0.116375 
473 1 473 0.719491 0.20003 0 0.0158633 
474 1 474 0.719369 0.24005 0 0.628124 
475 1 475 0.719252 0.280071 0 2.01768 
476 1 476 0.719127 0.320086 0 3.89393 
477 1 477 0.718997 0.360095 0 5.40342 
478 1 478 0.718874 0.400102 0 5.78947 
479 1 479 0.718757 0.440112 0 4.95309 
480 1 480 0.718654 0.480133 0 3.50213 
481 1 481 0.718557 0.520161 0 2.16634 
482 1 482 0.718458 0.560197 0 1.37189 
483 1 483 0.718361 0.600235 0 1.48301 
484 1 484 0.718264 0.640268 0 2.4064 
485 1 485 0.718173 0.680293 0 3.28312 
486 1 486 0.718095 0.720314 0 3.81778 
487 1 487 0.718021 0.760332 0 3.66259 
488 1 488 0.717953 0.800355 0 2.68977 
489 1 489 0.717893 0.840384 0 1.8914 
490 1 490 0.717846 0.880421 0 2.10204 
491 1 491 0.717817 0.920461 0 2.61908 
492 1 492 0.717828 0.960506 0 3.51047 
493 1 493 0.71785 1.00055 0 4.34125 
494 1 494 0.76 0 0 0 
495 1 495 0.759899 0.0399999 0 -0.749256 
496 1 496 0.759803 0.0800088 0 -0.665751 
497 1 497 0.759702 0.120018 0 -0.0900921 
498 1 498 0.759575 0.160032 0 0.183557 
499 1 499 0.75944 0.200049 0 0.28307 
500 1 500 0.759314 0.240066 0 0.750699 
501 1 501 0.759199 0.280086 0 1.80603 
502 1 502 0.759081 0.320098 0 3.65684 
503 1 503 0.758958 0.360105 0 5.42547 
504 1 504 0.758834 0.400109 0 6.08957 
505 1 505 0.75871 0.440115 0 5.46015 
506 1 506 0.758595 0.480133 0 3.985 
507 1 507 0.758487 0.520161 0 2.56086 
508 1 508 0.758383 0.560197 0 1.81934 
509 1 509 0.758286 0.600236 0 2.02545 
510 1 510 0.758194 0.640268 0 3.09784 
511 1 511 0.758106 0.680294 0 4.01498 
512 1 512 0.758029 0.720313 0 4.34033 
513 1 513 0.75795 0.760331 0 4.04488 
514 1 514 0.757873 0.800352 0 3.06496 
515 1 515 0.757804 0.840378 0 2.28478 
516 1 516 0.757753 0.88041 0 2.60244 
517 1 517 0.757721 0.920444 0 3.13224 
518 1 518 0.75773 0.960484 0 3.76004 
519 1 519 0.757751 1.00053 0 4.3899 
520 1 520 0.8 0 0 0 
521 1 521 0.799885 0.0400059 0 -0.026977 
522 1 522 0.799777 0.0800167 0 -0.136115 
523 1 523 0.799667 0.12003 0 0.00643374 
524 1 524 0.799532 0.160048 0 0.468052 
525 1 525 0.799391 0.200064 0 0.99353 
526 1 526 0.799262 0.240079 0 1.45995 
527 1 527 0.799147 0.280095 0 2.16801 
528 1 528 0.799034 0.320105 0 3.75483 
529 1 529 0.798917 0.36011 0 5.42393 
530 1 530 0.798794 0.400113 0 6.12034 
531 1 531 0.798664 0.440117 0 5.64893 
532 1 532 0.798538 0.480133 0 4.24209 
533 1 533 0.798419 0.520159 0 2.83214 
534 1 534 0.798307 0.560194 0 2.16096 
535 1 535 0.798208 0.600231 0 2.36683 
536 1 536 0.79812 0.640263 0 3.4299 
537 1 537 0.798036 0.680289 0 4.3081 
538 1 538 0.79796 0.720308 0 4.45807 
539 1 539 0.797878 0.760328 0 4.13947 
540 1 540 0.797795 0.800348 0 3.36697 
541 1 541 0.797721 0.840372 0 2.76864 
542 1 542 0.797669 0.8804 0 3.18738 
543 1 543 0.797635 0.920429 0 3.68692 
544 1 544 0.79764 0.960464 0 4.01803 
545 1 545 0.797659 1.0005 0 4.41904 
546 1 546 0.84 0 0 0 
547 1 547 0.839874 0.0400083 0 0.466818 
548 1 548 0.839754 0.0800196 0 0.253505 
549 1 549 0.839634 0.120038 0 0.168989 
550 1 550 0.839494 0.160057 0 1.00067 
551 1 551 0.839351 0.200072 0 2.12429 
552 1 552 0.839218 0.240085 0 2.71585 
553 1 553 0.839101 0.280098 0 3.06761 
554 1 554 0.838993 0.320107 0 4.15362 
555 1 555 0.838882 0.360112 0 5.41243 
556 1 556 0.838759 0.400115 0 5.95855 
557 1 557 0.838623 0.440118 0 5.59232 
558 1 558 0.838486 0.480133 0 4.29016 
559 1 559 0.838356 0.520155 0 2.9413 
560 1 560 0.838239 0.560187 0 2.33694 
561 1 561 0.838141 0.600221 0 2.45939 
562 1 562 0.838059 0.640251 0 3.34526 
563 1 563 0.837979 0.680278 0 4.0841 
564 1 564 0.837901 0.720298 0 4.11404 
565 1 565 0.837817 0.76032 0 3.91222 
566 1 566 0.837728 0.800341 0 3.53291 
567 1 567 0.837649 0.840364 0 3.22047 
568 1 568 0.837594 0.880388 0 3.68206 
569 1 569 0.837559 0.920414 0 4.0949 
570 1 570 0.83756 0.960444 0 4.15803 
571 1 571 0.837576 1.00048 0 4.35722 
572 1 572 0.88 0 0 0 
573 1 573 0.879865 0.0400075 0 0.63791 
574 1 574 0.879734 0.0800185 0 0.419984 
575 1 575 0.879603 0.12004 0 0.347408 
576 1 576 0.879462 0.160059 0 1.61061 
577 1 577 0.87932 0.200074 0 3.30341 
578 1 578 0.879187 0.240085 0 4.10241 
579 1 579 0.879067 0.280094 0 4.22046 
580 1 580 0.878959 0.320102 0 4.72396 
581 1 581 0.878849 0.360108 0 5.33781 
582 1 582 0.878725 0.400112 0 5.53889 
583 1 583 0.878583 0.440118 0 5.20874 
584 1 584 0.878436 0.48013 0 4.08816 
585 1 585 0.878296 0.52015 0 2.8789 
586 1 586 0.878172 0.560177 0 2.30972 
587 1 587 0.878071 0.600206 0 2.23746 
588 1 588 0.87799 0.640234 0 2.80102 
589 1 589 0.877913 0.68026 0 3.35711 
590 1 590 0.877835 0.720283 0 3.36364 
591 1 591 0.877751 0.760308 0 3.38627 
592 1 592 0.877662 0.80033 0 3.51352 
593 1 593 0.877582 0.840353 0 3.59413 
594 1 594 0.877528 0.880375 0 4.13475 
595 1 595 0.877493 0.920398 0 4.49467 
596 1 596 0.87749 0.960424 0 4.3757 
597 1 597 0.877504 1.00045 0 4.42699 
598 1 598 0.92 0 0 0 
599 1 599 0.919857 0.0400048 0 0.563957 
600 1 600 0.919715 0.0800148 0 0.372419 
601 1 601 0.919577 0.120037 0 0.417363 
602 1 602 0.919438 0.160055 0 2.04176 
603 1 603 0.919302 0.20007 0 4.18999 
604 1 604 0.91917 0.240078 0 5.26753 
605 1 605 0.919045 0.280083 0 5.2824 
606 1 606 0.918934 0.32009 0 5.17209 
607 1 607 0.918823 0.360097 0 5.04583 
608 1 608 0.918696 0.400105 0 4.87305 
609 1 609 0.918549 0.440113 0 4.63988 
610 1 610 0.918392 0.480125 0 3.87512 
611 1 611 0.918243 0.52014 0 2.97606 
612 1 612 0.918115 0.560162 0 2.51428 
613 1 613 0.918013 0.600186 0 2.22928 
614 1 614 0.917934 0.640211 0 2.35009 
615 1 615 0.917858 0.680238 0 2.6155 
616 1 616 0.917779 0.720262 0 2.59959 
617 1 617 0.917695 0.760291 0 2.85152 
618 1 618 0.917606 0.800314 0 3.46688 
619 1 619 0.917526 0.840338 0 3.93062 
620 1 620 0.917472 0.880358 0 4.52341 
621 1 621 0.917435 0.920379 0 4.82498 
622 1 622 0.917429 0.960402 0 4.58502 
623 1 623 0.917442 1.00043 0 4.5373 
624 1 624 0.96 0 0 0 
625 1 625 0.959849 0.0400018 0 0.315931 
626 1 626 0.959698 0.0800104 0 0.177068 
627 1 627 0.959554 0.12003 0 0.409755 
628 1 628 0.95942 0.160046 0 2.21262 
629 1 629 0.959292 0.200058 0 4.51611 
630 1 630 0.959161 0.240063 0 5.81423 
631 1 631 0.959034 0.280064 0 5.88969 
632 1 632 0.958918 0.320071 0 5.34395 
633 1 633 0.9588 0.360079 0 4.62726 
634 1 634 0.958666 0.400091 0 4.17343 
635 1 635 0.958515 0.440103 0 4.09599 
636 1 636 0.958351 0.480114 0 3.80056 
637 1 637 0.958195 0.520127 0 3.2955 
638 1 638 0.95806 0.560142 0 2.91439 
639 1 639 0.957951 0.60016 0 2.32636 
640 1 640 0.957869 0.640183 0 1.87316 
641 1 641 0.957792 0.68021 0 1.75826 
642 1 642 0.957714 0.720237 0 1.73742 
643 1 643 0.957632 0.760268 0 2.22157 
644 1 644 0.957549 0.800293 0 3.27218 
645 1 645 0.957473 0.840318 0 4.0967 
646 1 646 0.957422 0.880337 0 4.74961 
647 1 647 0.957386 0.920358 0 5.00923 
648 1 648 0.957377 0.960378 0 4.68888 
649 1 649 0.957388 1.0004 0 4.57226 
650 1 650 1 0 0 0 
651 1 651 0.999841 0.0399992 0 0.105766 
652 1 652 0.999683 0.0800056 0 0.0642913 
653 1 653 0.999535 0.12002 0 0.443958 
654 1 654 0.999406 0.160031 0 2.1414 
655 1 655 0.999288 0.20004 0 4.26603 
656 1 656 0.999162 0.240041 0 5.70438 
657 1 657 0.999031 0.28004 0 5.95844 
658 1 658 0.998907 0.320046 0 5.1414 
659 1 659 0.998781 0.360055 0 4.00848 
660 1 660 0.998641 0.40007 0 3.40964 
661 1 661 0.998487 0.440086 0 3.5939 
662 1 662 0.998319 0.480097 0 3.90141 
663 1 663 0.998158 0.520108 0 3.89135 
664 1 664 0.998022 0.560118 0 3.63728 
665 1 665 0.997908 0.600132 0 2.81154 
666 1 666 0.997822 0.640152 0 1.83173 
667 1 667 0.997742 0.680179 0 1.29978 
668 1 668 0.997661 0.720208 0 1.17182 
669 1 669 0.997581 0.760241 0 1.69664 
670 1 670 0.997503 0.800267 0 2.95455 
671 1 671 0.997429 0.840292 0 4.0393 
672 1 672 0.997379 0.880311 0 4.7919 
673 1 673 0.997342 0.920332 0 5.10211 
674 1 674 0.997332 0.960351 0 4.79003 
675 1 675 0.997343 1.00037 0 4.64223 
676 1 676 1.04 0 0 0 
677 1 677 1.03983 0.039997 0 -0.0584978 
678 1 678 1.03967 0.0800002 0 0.0274766 
679 1 679 1.03952 0.120007 0 0.534992 
680 1 680 1.0394 0.160013 0 1.95019 
681 1 681 1.03928 0.200016 0 3.65663 
682 1 682 1.03916 0.240014 0 5.10487 
683 1 683 1.03903 0.280012 0 5.56576 
684 1 684 1.0389 0.320015 0 4.67693 
685 1 685 1.03876 0.360025 0 3.38617 
686 1 686 1.03862 0.400043 0 2.7657 
687 1 687 1.03846 0.440062 0 3.17991 
688 1 688 1.03829 0.480075 0 4.05197 
689 1 689 1.03813 0.520084 0 4.54877 
690 1 690 1.03799 0.560091 0 4.43691 
691 1 691 1.03786 0.600101 0 3.38143 
692 1 692 1.03776 0.640119 0 1.85978 
693 1 693 1.03768 0.680145 0 0.865975 
694 1 694 1.0376 0.720176 0 0.62095 
695 1 695 1.03752 0.76021 0 1.16998 
696 1 696 1.03745 0.800237 0 2.54192 
697 1 697 1.03738 0.840263 0 3.81025 
698 1 698 1.03734 0.880282 0 4.6442 
699 1 699 1.0373 0.920302 0 5.02426 
700 1 700 1.03729 0.96032 0 4.75255 
701 1 701 1.0373 1.00034 0 4.58344 
702 1 702 1.08 0 0 0 
703 1 703 1.07983 0.0399947 0 -0.0448486 
704 1 704 1.07966 0.0799936 0 0.322124 
705 1 705 1.07951 0.119992 0 0.997936 
706 1 706 1.07939 0.159991 0 1.96378 
707 1 707 1.07928 0.199989 0 2.98046 
708 1 708 1.07917 0.239984 0 4.20652 
709 1 709 1.07903 0.279981 0 4.79787 
710 1 710 1.07889 0.319982 0 3.95839 
711 1 711 1.07875 0.359993 0 2.68027 
712 1 712 1.07859 0.400013 0 2.12162 
713 1 713 1.07844 0.440032 0 2.74496 
714 1 714 1.07827 0.480047 0 4.10802 
715 1 715 1.07811 0.520056 0 5.05167 
716 1 716 1.07797 0.56006 0 5.10806 
717 1 717 1.07784 0.600069 0 4.01917 
718 1 718 1.07773 0.640085 0 2.23656 
719 1 719 1.07764 0.680111 0 0.901487 
720 1 720 1.07755 0.720142 0 0.445083 
721 1 721 1.07747 0.760176 0 0.817548 
722 1 722 1.07741 0.800205 0 2.09171 
723 1 723 1.07734 0.840231 0 3.44483 
724 1 724 1.0773 0.88025 0 4.35482 
725 1 725 1.07726 0.92027 0 4.84055 
726 1 726 1.07725 0.960287 0 4.65269 
727 1 727 1.07726 1.00031 0 4.46904 
728 1 728 1.12 0 0 0 
729 1 729 1.11982 0.0399913 0 0.15375 
730 1 730 1.11965 0.0799846 0 0.85048 
731 1 731 1.1195 0.119974 0 1.63715 
732 1 732 1.11939 0.159966 0 2.11163 
733 1 733 1.11928 0.199958 0 2.40012 
734 1 734 1.11917 0.239951 0 3.2236 
735 1 735 1.11904 0.279948 0 3.77469 
736 1 736 1.11889 0.319949 0 3.06548 
737 1 737 1.11873 0.35996 0 2.00389 
738 1 738 1.11857 0.39998 0 1.58808 
739 1 739 1.11841 0.44 0 2.28386 
740 1 740 1.11825 0.480016 0 3.92141 
741 1 741 1.1181 0.520025 0 5.22163 
742 1 742 1.11795 0.560029 0 5.49868 
743 1 743 1.1178 0.600037 0 4.52218 
744 1 744 1.11768 0.640052 0 2.67328 
745 1 745 1.11758 0.680078 0 1.13129 
746 1 746 1.11749 0.72011 0 0.511908 
747 1 747 1.11742 0.760143 0 0.698123 
748 1 748 1.11736 0.800173 0 1.77682 
749 1 749 1.1173 0.840199 0 3.11098 
750 1 750 1.11726 0.880219 0 4.031 
751 1 751 1.11723 0.920239 0 4.63337 
752 1 752 1.11721 0.960255 0 4.60103 
753 1 753 1.11722 1.00028 0 4.42666 
754 1 754 1.16 0 0 0 
755 1 755 1.15982 0.0399871 0 0.433095 
756 1 756 1.15965 0.0799738 0 1.50934 
757 1 757 1.15951 0.119955 0 2.42332 
758 1 758 1.15939 0.159939 0 2.42971 
759 1 759 1.15928 0.199927 0 1.97669 
760 1 760 1.15917 0.239919 0 2.25538 
761 1 761 1.15904 0.279917 0 2.66241 
762 1 762 1.15888 0.319917 0 2.13842 
763 1 763 1.15871 0.359929 0 1.36267 
764 1 764 1.15855 0.399947 0 1.11132 
765 1 765 1.15839 0.439966 0 1.81869 
766 1 766 1.15824 0.479983 0 3.58388 
767 1 767 1.15809 0.519993 0 5.14478 
768 1 768 1.15794 0.559999 0 5.69967 
769 1 769 1.15779 0.600009 0 5.06001 
770 1 770 1.15766 0.640023 0 3.42524 
771 1 771 1.15755 0.680049 0 1.7989 
772 1 772 1.15745 0.720079 0 0.947639 
773 1 773 1.15737 0.760112 0 0.847966 
774 1 774 1.15731 0.800143 0 1.64511 
775 1 775 1.15726 0.84017 0 2.90108 
776 1 776 1.15722 0.880191 0 3.75555 
777 1 777 1.15719 0.920211 0 4.40894 
778 1 778 1.15717 0.960227 0 4.52404 
779 1 779 1.15717 1.00025 0 4.35015 
780 1 780 1.2 0 0 0 
781 1 781 1.19982 0.0399819 0 0.842197 
782 1 782 1.19966 0.0799616 0 2.20696 
783 1 783 1.19952 0.119936 0 3.10825 
784 1 784 1.1994 0.159913 0 2.71377 
785 1 785 1.19928 0.199897 0 1.64144 
786 1 786 1.19917 0.239889 0 1.26545 
787 1 787 1.19903 0.279887 0 1.38839 
788 1 788 1.19887 0.319889 0 1.16013 
789 1 789 1.19869 0.3599 0 0.899527 
790 1 790 1.19852 0.399916 0 0.939027 
791 1 791 1.19837 0.439934 0 1.55093 
792 1 792 1.19822 0.479952 0 3.16539 