ITEM: TIMESTEP
0
ITEM: NUMBER OF ATOMS
7127
ITEM: BOX BOUNDS sm sm sm
0 4
0 2
0 0
ITEM: ATOMS id type tag x y z vx 
0 1 0 0 0 0 0 
1 1 1 0 0.04 0 0 
2 1 2 0 0.08 0 0 
3 1 3 0 0.12 0 0 
4 1 4 0 0.16 0 0 
5 1 5 0 0.2 0 0 
6 1 6 0 0.24 0 0 
7 1 7 0 0.28 0 0 
8 1 8 0 0.32 0 0 
9 1 9 0 0.36 0 0 
10 1 10 0 0.4 0 0 
11 1 11 0 0.44 0 0 
12 1 12 0 0.48 0 0 
13 1 13 0 0.52 0 0 
14 1 14 0 0.56 0 0 
15 1 15 0 0.6 0 0 
16 1 16 0 0.64 0 0 
17 1 17 0 0.68 0 0 
18 1 18 0 0.72 0 0 
19 1 19 0 0.76 0 0 
20 1 20 0 0.8 0 0 
21 1 21 0 0.84 0 0 
22 1 22 0 0.88 0 0 
23 1 23 0 0.92 0 0 
24 1 24 0 0.96 0 0 
25 1 25 0 1 0 0 
26 1 26 0.04 0 0 0 
27 1 27 0.0400046 0.0400031 0 0.233596 
28 1 28 0.0400061 0.0800028 0 0.433348 
29 1 29 0.0400046 0.120004 0 0.490309 
30 1 30 0.0400019 0.160006 0 0.305955 
31 1 31 0.0399998 0.20001 0 0.146325 
32 1 32 0.0399989 0.24001 0 -0.0915449 
33 1 33 0.0399981 0.280011 0 -0.208662 
34 1 34 0.0399939 0.320009 0 -0.10098 
35 1 35 0.0399895 0.360009 0 -0.0050874 
36 1 36 0.039988 0.400011 0 0.103225 
37 1 37 0.0399811 0.440011 0 -0.0787443 
38 1 38 0.0399816 0.480013 0 -0.251782 
39 1 39 0.0399742 0.520013 0 -0.413897 
40 1 40 0.0399745 0.560015 0 -0.811045 
41 1 41 0.0399745 0.600013 0 -0.541339 
42 1 42 0.0399664 0.640015 0 -0.632183 
43 1 43 0.0399716 0.680013 0 -0.472064 
44 1 44 0.039963 0.720016 0 -0.0420821 
45 1 45 0.0399602 0.760018 0 -0.316597 
46 1 46 0.0399611 0.800021 0 -0.0547985 
47 1 47 0.0399524 0.840027 0 0.183486 
48 1 48 0.0399463 0.880041 0 -0.219125 
49 1 49 0.0399525 0.920046 0 0.183297 
50 1 50 0.0399322 0.960073 0 0.0513648 
51 1 51 0.0398886 1.00012 0 -0.795408 
52 1 52 0.08 0 0 0 
53 1 53 0.08001 0.0400058 0 0.261777 
54 1 54 0.0800096 0.0800076 0 0.779365 
55 1 55 0.0800057 0.120012 0 1.18455 
56 1 56 0.0800014 0.160015 0 0.883064 
57 1 57 0.0799991 0.200022 0 0.274494 
58 1 58 0.0799967 0.240022 0 -0.341631 
59 1 59 0.079994 0.280026 0 -0.433333 
60 1 60 0.079987 0.320026 0 -0.0952935 
61 1 61 0.0799779 0.360026 0 0.200676 
62 1 62 0.0799733 0.400029 0 0.460654 
63 1 63 0.0799606 0.440028 0 0.158386 
64 1 64 0.0799599 0.480032 0 -0.33943 
65 1 65 0.0799484 0.520031 0 -0.800799 
66 1 66 0.0799466 0.560037 0 -1.53294 
67 1 67 0.0799465 0.600037 0 -1.25009 
68 1 68 0.0799343 0.640039 0 -1.20635 
69 1 69 0.0799387 0.680039 0 -0.76575 
70 1 70 0.0799251 0.720042 0 -0.0510787 
71 1 71 0.0799215 0.760046 0 -0.218804 
72 1 72 0.0799162 0.800055 0 0.0524835 
73 1 73 0.0799018 0.840066 0 -0.0550229 
74 1 74 0.0798963 0.880082 0 -0.0854357 
75 1 75 0.0798843 0.920108 0 0.450538 
76 1 76 0.0798549 0.960144 0 -0.183384 
77 1 77 0.079822 1.00017 0 -1.09513 
78 1 78 0.12 0 0 0 
79 1 79 0.120012 0.0400065 0 0.323891 
80 1 80 0.12001 0.0800139 0 1.15016 
81 1 81 0.120005 0.120022 0 1.86806 
82 1 82 0.119999 0.160027 0 1.43068 
83 1 83 0.119996 0.200035 0 0.353559 
84 1 84 0.119991 0.240037 0 -0.52146 
85 1 85 0.119988 0.280043 0 -0.604084 
86 1 86 0.119977 0.320046 0 -0.139499 
87 1 87 0.119965 0.360047 0 0.410944 
88 1 88 0.119955 0.400052 0 0.821778 
89 1 89 0.119942 0.440051 0 0.508203 
90 1 90 0.119934 0.480058 0 -0.223203 
91 1 91 0.119922 0.520059 0 -1.01293 
92 1 92 0.119916 0.560065 0 -1.83415 
93 1 93 0.119916 0.600069 0 -1.74529 
94 1 94 0.119907 0.640072 0 -1.55426 
95 1 95 0.119908 0.680073 0 -0.724639 
96 1 96 0.119891 0.72008 0 0.0296145 
97 1 97 0.119887 0.760081 0 0.0680567 
98 1 98 0.119872 0.800095 0 0.281787 
99 1 99 0.119853 0.840107 0 -0.269417 
100 1 100 0.119845 0.880125 0 0.032025 
101 1 101 0.119814 0.920156 0 0.491785 
102 1 102 0.119793 0.960187 0 -0.444839 
103 1 103 0.119775 1.00021 0 -1.08374 
104 1 104 0.16 0 0 0 
105 1 105 0.160007 0.0400083 0 0.559417 
106 1 106 0.160004 0.0800197 0 1.49411 
107 1 107 0.160001 0.120032 0 2.21328 
108 1 108 0.159995 0.16004 0 1.71784 
109 1 109 0.159989 0.200049 0 0.517317 
110 1 110 0.159982 0.240055 0 -0.417218 
111 1 111 0.159978 0.280064 0 -0.571155 
112 1 112 0.159963 0.320069 0 -0.0158456 
113 1 113 0.159949 0.360075 0 0.768562 
114 1 114 0.159934 0.400081 0 1.15878 
115 1 115 0.159918 0.440085 0 0.798571 
116 1 116 0.159904 0.480091 0 -0.0506392 
117 1 117 0.159892 0.520098 0 -1.14971 
118 1 118 0.159885 0.560102 0 -1.98209 
119 1 119 0.15988 0.600108 0 -2.07767 
120 1 120 0.159875 0.640114 0 -1.80388 
121 1 121 0.159871 0.680114 0 -0.709237 
122 1 122 0.159856 0.720122 0 -0.00726607 
123 1 123 0.159851 0.760122 0 0.210374 
124 1 124 0.159831 0.800132 0 0.29357 
125 1 125 0.159811 0.840143 0 -0.313861 
126 1 126 0.159793 0.880161 0 0.130293 
127 1 127 0.159756 0.920183 0 0.23688 
128 1 128 0.15974 0.960208 0 -0.467206 
129 1 129 0.15973 1.00023 0 -0.580499 
130 1 130 0.2 0 0 0 
131 1 131 0.200002 0.0400113 0 0.746469 
132 1 132 0.199997 0.0800259 0 1.65182 
133 1 133 0.199992 0.12004 0 2.31993 
134 1 134 0.199986 0.160052 0 1.95429 
135 1 135 0.199977 0.200064 0 0.866882 
136 1 136 0.199971 0.240076 0 -0.0640015 
137 1 137 0.19996 0.280088 0 -0.271571 
138 1 138 0.199944 0.3201 0 0.295483 
139 1 139 0.199928 0.360111 0 1.18075 
140 1 140 0.19991 0.400118 0 1.44155 
141 1 141 0.199892 0.440127 0 1.02415 
142 1 142 0.199875 0.480133 0 0.0334202 
143 1 143 0.199861 0.52014 0 -1.31448 
144 1 144 0.199852 0.560147 0 -2.18048 
145 1 145 0.199847 0.600152 0 -2.52058 
146 1 146 0.199847 0.64016 0 -2.13696 
147 1 147 0.199842 0.680161 0 -1.00772 
148 1 148 0.199831 0.720165 0 -0.369821 
149 1 149 0.199825 0.760165 0 0.211581 
150 1 150 0.199797 0.800169 0 0.187999 
151 1 151 0.199778 0.840174 0 -0.31521 
152 1 152 0.19975 0.880188 0 0.210734 
153 1 153 0.199712 0.920202 0 -0.0728298 
154 1 154 0.199698 0.960217 0 -0.337277 
155 1 155 0.199686 1.00024 0 0.10453 
156 1 156 0.24 0 0 0 
157 1 157 0.239992 0.0400144 0 0.895311 
158 1 158 0.239985 0.0800326 0 1.69296 
159 1 159 0.23998 0.12005 0 2.19076 
160 1 160 0.239975 0.160067 0 1.93856 
161 1 161 0.23996 0.200083 0 1.2185 
162 1 162 0.23995 0.240101 0 0.517625 
163 1 163 0.239935 0.28012 0 0.305281 
164 1 164 0.23992 0.320138 0 0.679942 
165 1 165 0.239904 0.360152 0 1.47534 
166 1 166 0.239882 0.400163 0 1.5655 
167 1 167 0.239865 0.440171 0 1.08345 
168 1 168 0.239842 0.48018 0 -0.00653512 
169 1 169 0.23983 0.520186 0 -1.52451 
170 1 170 0.239818 0.560194 0 -2.31383 
171 1 171 0.239809 0.6002 0 -2.89304 
172 1 172 0.239813 0.640206 0 -2.51 
173 1 173 0.239808 0.68021 0 -1.41646 
174 1 174 0.239805 0.720207 0 -0.905161 
175 1 175 0.239799 0.760205 0 -0.0526885 
176 1 176 0.239771 0.800205 0 0.0682579 
177 1 177 0.239751 0.840203 0 -0.208423 
178 1 178 0.239718 0.880211 0 0.131221 
179 1 179 0.239683 0.920216 0 -0.298424 
180 1 180 0.239664 0.960224 0 -0.0797574 
181 1 181 0.239643 1.00024 0 0.60805 
182 1 182 0.28 0 0 0 
183 1 183 0.279981 0.0400152 0 1.1313 
184 1 184 0.279971 0.0800362 0 1.69582 
185 1 185 0.279963 0.120059 0 1.82977 
186 1 186 0.279954 0.160081 0 1.7232 
187 1 187 0.279937 0.200103 0 1.55304 
188 1 188 0.279923 0.240127 0 1.07869 
189 1 189 0.279905 0.280151 0 0.804497 
190 1 190 0.279888 0.320172 0 0.983875 
191 1 191 0.279875 0.360189 0 1.57459 
192 1 192 0.279852 0.400201 0 1.5015 
193 1 193 0.279836 0.440211 0 0.930609 
194 1 194 0.279812 0.480218 0 -0.12513 
195 1 195 0.279797 0.520226 0 -1.65198 
196 1 196 0.279787 0.560231 0 -2.3696 
197 1 197 0.279779 0.600241 0 -2.94855 
198 1 198 0.279787 0.640245 0 -2.71425 
199 1 199 0.279787 0.68025 0 -1.83995 
200 1 200 0.279789 0.720248 0 -1.33061 
201 1 201 0.279781 0.760243 0 -0.416608 
202 1 202 0.279755 0.80024 0 -0.0176498 
203 1 203 0.27973 0.840235 0 0.0947007 
204 1 204 0.279694 0.880236 0 0.0372862 
205 1 205 0.279665 0.920234 0 -0.384714 
206 1 206 0.279636 0.960238 0 0.137908 
207 1 207 0.279608 1.00025 0 0.696304 
208 1 208 0.32 0 0 0 
209 1 209 0.319969 0.0400169 0 1.30617 
210 1 210 0.319953 0.08004 0 1.56599 
211 1 211 0.319941 0.120066 0 1.3396 
212 1 212 0.319929 0.160092 0 1.40496 
213 1 213 0.31991 0.200119 0 1.67004 
214 1 214 0.31989 0.240146 0 1.43907 
215 1 215 0.31987 0.280169 0 1.21048 
216 1 216 0.319855 0.320194 0 1.18783 
217 1 217 0.319844 0.360209 0 1.41265 
218 1 218 0.319822 0.400223 0 1.19846 
219 1 219 0.319805 0.440232 0 0.632138 
220 1 220 0.31978 0.480239 0 -0.260438 
221 1 221 0.319764 0.520249 0 -1.49842 
222 1 222 0.319751 0.560256 0 -2.18103 
223 1 223 0.319743 0.600267 0 -2.68568 
224 1 224 0.319749 0.640275 0 -2.5179 
225 1 225 0.319756 0.680282 0 -2.04322 
226 1 226 0.319767 0.720282 0 -1.49618 
227 1 227 0.319759 0.76028 0 -0.569883 
228 1 228 0.31974 0.800274 0 0.0308223 
229 1 229 0.319713 0.840269 0 0.466421 
230 1 230 0.319678 0.880266 0 0.0120065 
231 1 231 0.319654 0.920262 0 -0.383964 
232 1 232 0.319617 0.960265 0 0.0663374 
233 1 233 0.319584 1.00027 0 0.217225 
234 1 234 0.36 0 0 0 
235 1 235 0.359959 0.0400173 0 1.37094 
236 1 236 0.359935 0.0800405 0 1.41853 
237 1 237 0.359918 0.120066 0 0.862988 
238 1 238 0.359901 0.160096 0 0.957446 
239 1 239 0.35988 0.200122 0 1.51976 
240 1 240 0.359856 0.240151 0 1.65768 
241 1 241 0.359835 0.280172 0 1.52368 
242 1 242 0.359822 0.320197 0 1.28346 
243 1 243 0.359811 0.36021 0 1.17339 
244 1 244 0.359793 0.400223 0 0.792154 
245 1 245 0.359776 0.440232 0 0.307784 
246 1 246 0.35975 0.480239 0 -0.379909 
247 1 247 0.359733 0.520251 0 -1.17493 
248 1 248 0.359717 0.560263 0 -1.66263 
249 1 249 0.359712 0.600277 0 -2.15471 
250 1 250 0.359722 0.640289 0 -2.07579 
251 1 251 0.359733 0.680301 0 -1.98583 
252 1 252 0.359749 0.720304 0 -1.53779 
253 1 253 0.359742 0.760309 0 -0.708647 
254 1 254 0.359728 0.800304 0 0.0196215 
255 1 255 0.359699 0.840302 0 0.644149 
256 1 256 0.359666 0.880298 0 0.0203842 
257 1 257 0.359644 0.920295 0 -0.318284 
258 1 258 0.359606 0.960296 0 -0.149897 
259 1 259 0.359579 1.00029 0 -0.375886 
260 1 260 0.4 0 0 0 
261 1 261 0.399948 0.0400152 0 1.25462 
262 1 262 0.399918 0.080036 0 1.13183 
263 1 263 0.399894 0.120061 0 0.363784 
264 1 264 0.399873 0.160089 0 0.56601 
265 1 265 0.399849 0.200115 0 1.41041 
266 1 266 0.399825 0.240141 0 1.85335 
267 1 267 0.399802 0.280161 0 1.80074 
268 1 268 0.399791 0.32018 0 1.36754 
269 1 269 0.399781 0.360194 0 0.963823 
270 1 270 0.399765 0.400207 0 0.407501 
271 1 271 0.399747 0.440216 0 0.0320448 
272 1 272 0.399719 0.480228 0 -0.457746 
273 1 273 0.399699 0.52024 0 -0.950727 
274 1 274 0.399678 0.560256 0 -1.2394 
275 1 275 0.399671 0.600274 0 -1.67037 
276 1 276 0.399678 0.640291 0 -1.72102 
277 1 277 0.399694 0.680306 0 -1.92513 
278 1 278 0.399715 0.720316 0 -1.60966 
279 1 279 0.399713 0.760325 0 -0.940605 
280 1 280 0.399708 0.800327 0 -0.142072 
281 1 281 0.399681 0.840328 0 0.488913 
282 1 282 0.399655 0.880325 0 -0.195022 
283 1 283 0.399634 0.920326 0 -0.521464 
284 1 284 0.399603 0.960324 0 -0.594722 
285 1 285 0.399588 1.00032 0 -0.943229 
286 1 286 0.44 0 0 0 
287 1 287 0.439943 0.0400121 0 0.918258 
288 1 288 0.439904 0.080028 0 0.726352 
289 1 289 0.439871 0.120048 0 0.0486683 
290 1 290 0.439845 0.160072 0 0.371371 
291 1 291 0.439821 0.200096 0 1.2864 
292 1 292 0.439795 0.240117 0 1.92841 
293 1 293 0.439773 0.280134 0 2.10601 
294 1 294 0.439762 0.320151 0 1.57174 
295 1 295 0.439754 0.360164 0 0.825 
296 1 296 0.439738 0.400179 0 0.0945772 
297 1 297 0.43972 0.44019 0 -0.275204 
298 1 298 0.439691 0.480205 0 -0.548795 
299 1 299 0.439666 0.520221 0 -0.714305 
300 1 300 0.439644 0.560239 0 -0.909982 
301 1 301 0.439638 0.600258 0 -1.30929 
302 1 302 0.439646 0.640277 0 -1.51711 
303 1 303 0.439664 0.680297 0 -1.97898 
304 1 304 0.439684 0.720313 0 -1.82474 
305 1 305 0.439687 0.760329 0 -1.35265 
306 1 306 0.439687 0.800335 0 -0.590431 
307 1 307 0.439664 0.840341 0 -0.0429208 
308 1 308 0.439643 0.88034 0 -0.633605 
309 1 309 0.439624 0.920343 0 -0.963468 
310 1 310 0.43961 0.96034 0 -1.0307 
311 1 311 0.43961 1.00033 0 -1.14658 
312 1 312 0.48 0 0 0 
313 1 313 0.47994 0.0400083 0 0.483825 
314 1 314 0.479894 0.0800188 0 0.393737 
315 1 315 0.479853 0.120032 0 0.000925978 
316 1 316 0.479821 0.160053 0 0.351959 
317 1 317 0.479795 0.20007 0 1.22649 
318 1 318 0.479769 0.240089 0 2.05865 
319 1 319 0.479748 0.280103 0 2.39186 
320 1 320 0.479736 0.320118 0 1.7999 
321 1 321 0.479725 0.360132 0 0.812719 
322 1 322 0.479711 0.400149 0 -0.0579264 
323 1 323 0.47969 0.440165 0 -0.495789 
324 1 324 0.479659 0.480183 0 -0.740135 
325 1 325 0.47963 0.520202 0 -0.697286 
326 1 326 0.479603 0.560222 0 -0.851325 
327 1 327 0.479594 0.600241 0 -1.25617 
328 1 328 0.479596 0.640259 0 -1.60779 
329 1 329 0.479614 0.680279 0 -2.26044 
330 1 330 0.479636 0.720299 0 -2.20266 
331 1 331 0.479646 0.760317 0 -1.90147 
332 1 332 0.479655 0.800329 0 -1.39283 
333 1 333 0.479643 0.840337 0 -1.02082 
334 1 334 0.47963 0.880336 0 -1.31134 
335 1 335 0.479615 0.920339 0 -1.5614 
336 1 336 0.479619 0.960333 0 -1.35186 
337 1 337 0.479631 1.00032 0 -0.966953 
338 1 338 0.52 0 0 0 
339 1 339 0.519943 0.0400038 0 -0.019645 
340 1 340 0.519889 0.0800079 0 0.103783 
341 1 341 0.519839 0.120015 0 0.147545 
342 1 342 0.5198 0.16003 0 0.5717 
343 1 343 0.519773 0.200043 0 1.29432 
344 1 344 0.519748 0.240059 0 2.17457 
345 1 345 0.519724 0.280072 0 2.59885 
346 1 346 0.51971 0.320086 0 1.98609 
347 1 347 0.519696 0.360104 0 0.863106 
348 1 348 0.51968 0.400124 0 -0.140285 
349 1 349 0.519658 0.440144 0 -0.617864 
350 1 350 0.519626 0.480166 0 -0.895 
351 1 351 0.519596 0.520186 0 -0.874827 
352 1 352 0.519569 0.560204 0 -1.05176 
353 1 353 0.519562 0.600221 0 -1.48273 
354 1 354 0.519565 0.640237 0 -1.92698 
355 1 355 0.519579 0.680254 0 -2.6581 
356 1 356 0.519599 0.720273 0 -2.71445 
357 1 357 0.519612 0.760292 0 -2.53685 
358 1 358 0.519625 0.800306 0 -2.29796 
359 1 359 0.519625 0.840315 0 -2.08359 
360 1 360 0.519619 0.880314 0 -1.96387 
361 1 361 0.51961 0.920314 0 -2.03043 
362 1 362 0.519628 0.960309 0 -1.45365 
363 1 363 0.519648 1.0003 0 -0.572266 
364 1 364 0.56 0 0 0 
365 1 365 0.559945 0.0400003 0 -0.435053 
366 1 366 0.559887 0.0799991 0 -0.0612989 
367 1 367 0.55983 0.120003 0 0.502904 
368 1 368 0.559786 0.160011 0 0.984557 
369 1 369 0.559753 0.200023 0 1.41455 
370 1 370 0.559726 0.240036 0 2.15978 
371 1 371 0.559701 0.28005 0 2.67446 
372 1 372 0.559682 0.320066 0 2.10519 
373 1 373 0.559664 0.360087 0 0.875771 
374 1 374 0.559644 0.400112 0 -0.193609 
375 1 375 0.559621 0.440137 0 -0.736208 
376 1 376 0.559589 0.480161 0 -1.05084 
377 1 377 0.559558 0.520181 0 -1.10153 
378 1 378 0.559532 0.560196 0 -1.3541 
379 1 379 0.559521 0.600207 0 -1.85166 
380 1 380 0.559519 0.640216 0 -2.4225 
381 1 381 0.559529 0.680229 0 -3.12811 
382 1 382 0.559547 0.720243 0 -3.26624 
383 1 383 0.559569 0.760258 0 -3.24804 
384 1 384 0.559591 0.80027 0 -3.22416 
385 1 385 0.559604 0.840276 0 -3.04185 
386 1 386 0.559607 0.880276 0 -2.47224 
387 1 387 0.559603 0.920274 0 -2.23153 
388 1 388 0.559629 0.960271 0 -1.30626 
389 1 389 0.559651 1.00027 0 -0.103789 
390 1 390 0.6 0 0 0 
391 1 391 0.599949 0.0399962 0 -0.650111 
392 1 392 0.599887 0.0799926 0 -0.0761864 
393 1 393 0.599823 0.119993 0 0.93202 
394 1 394 0.599772 0.159998 0 1.43631 
395 1 395 0.599735 0.200007 0 1.601 
396 1 396 0.599705 0.240022 0 2.14871 
397 1 397 0.599677 0.280038 0 2.54783 
398 1 398 0.599652 0.320057 0 2.03082 
399 1 399 0.599626 0.360082 0 0.875678 
400 1 400 0.599604 0.400109 0 -0.20398 
401 1 401 0.599581 0.440137 0 -0.871989 
402 1 402 0.599552 0.480161 0 -1.28866 
403 1 403 0.599525 0.520178 0 -1.46183 
404 1 404 0.599505 0.560189 0 -1.81312 
405 1 405 0.599499 0.600193 0 -2.33967 
406 1 406 0.599498 0.640195 0 -2.97561 
407 1 407 0.599504 0.6802 0 -3.61289 
408 1 408 0.599518 0.720208 0 -3.73885 
409 1 409 0.599539 0.760219 0 -3.81223 
410 1 410 0.599565 0.800227 0 -3.95941 
411 1 411 0.599587 0.840231 0 -3.72845 
412 1 412 0.599596 0.880232 0 -2.70123 
413 1 413 0.599597 0.920228 0 -2.06892 
414 1 414 0.599624 0.960229 0 -1.03555 
415 1 415 0.599642 1.00023 0 0.146278 
416 1 416 0.64 0 0 0 
417 1 417 0.639948 0.039994 0 -0.660014 
418 1 418 0.639883 0.0799908 0 0.0846097 
419 1 419 0.639816 0.119989 0 1.40644 
420 1 420 0.63976 0.159993 0 1.91032 
421 1 421 0.639716 0.200002 0 1.79338 
422 1 422 0.639682 0.240016 0 2.06384 
423 1 423 0.63965 0.280036 0 2.25144 
424 1 424 0.639619 0.320058 0 1.70419 
425 1 425 0.639588 0.360085 0 0.702586 
426 1 426 0.639562 0.400114 0 -0.288732 
427 1 427 0.639537 0.440142 0 -1.05315 
428 1 428 0.639512 0.480165 0 -1.52575 
429 1 429 0.639491 0.520179 0 -1.83592 
430 1 430 0.639476 0.560184 0 -2.28028 
431 1 431 0.639467 0.600182 0 -2.79388 
432 1 432 0.639462 0.640179 0 -3.43475 
433 1 433 0.639464 0.680176 0 -3.96759 
434 1 434 0.639478 0.720176 0 -4.10804 
435 1 435 0.639505 0.760181 0 -4.26585 
436 1 436 0.639535 0.800185 0 -4.42286 
437 1 437 0.639565 0.840188 0 -4.05019 
438 1 438 0.639582 0.880191 0 -2.68801 
439 1 439 0.639586 0.920188 0 -1.65952 
440 1 440 0.639607 0.960192 0 -0.701271 
441 1 441 0.63962 1.0002 0 0.199365 
442 1 442 0.68 0 0 0 
443 1 443 0.679946 0.0399925 0 -0.492002 
444 1 444 0.679878 0.0799901 0 0.304981 
445 1 445 0.679807 0.11999 0 1.72725 
446 1 446 0.679748 0.159992 0 2.24338 
447 1 447 0.679697 0.200002 0 1.98056 
448 1 448 0.679658 0.240017 0 1.88032 
449 1 449 0.679622 0.280038 0 1.77632 
450 1 450 0.679584 0.320062 0 1.21764 
451 1 451 0.679549 0.36009 0 0.329 
452 1 452 0.679521 0.400117 0 -0.492208 
453 1 453 0.679497 0.440144 0 -1.24593 
454 1 454 0.679479 0.480162 0 -1.72659 
455 1 455 0.679465 0.520172 0 -2.09882 
456 1 456 0.679459 0.560172 0 -2.58439 
457 1 457 0.679458 0.600165 0 -3.0867 
458 1 458 0.679456 0.640157 0 -3.71122 
459 1 459 0.679456 0.680151 0 -4.08132 
460 1 460 0.679464 0.720147 0 -4.21324 
461 1 461 0.679487 0.760147 0 -4.46754 
462 1 462 0.679516 0.80015 0 -4.55797 
463 1 463 0.679546 0.840153 0 -4.05465 
464 1 464 0.679566 0.880159 0 -2.53215 
465 1 465 0.679573 0.920159 0 -1.16528 
466 1 466 0.679586 0.960166 0 -0.412809 
467 1 467 0.679594 1.00018 0 0.0569569 
468 1 468 0.72 0 0 0 
469 1 469 0.719936 0.0399925 0 -0.15465 
470 1 470 0.719867 0.0799916 0 0.615252 
471 1 471 0.719797 0.119992 0 1.91972 
472 1 472 0.719735 0.159994 0 2.33931 
473 1 473 0.719678 0.200004 0 2.00252 
474 1 474 0.719632 0.240019 0 1.54998 
475 1 475 0.719594 0.280041 0 1.05824 
476 1 476 0.719552 0.320064 0 0.555191 
477 1 477 0.719512 0.360092 0 -0.0659488 
478 1 478 0.719482 0.400116 0 -0.665828 
479 1 479 0.719458 0.440139 0 -1.34327 
480 1 480 0.719446 0.480154 0 -1.76615 
481 1 481 0.719438 0.52016 0 -2.16824 
482 1 482 0.719438 0.560158 0 -2.65317 
483 1 483 0.719434 0.60015 0 -3.0889 
484 1 484 0.719429 0.640141 0 -3.66116 
485 1 485 0.719428 0.680132 0 -3.96003 
486 1 486 0.719437 0.720126 0 -4.13254 
487 1 487 0.719461 0.760123 0 -4.39745 
488 1 488 0.719491 0.800125 0 -4.36438 
489 1 489 0.719522 0.840129 0 -3.79134 
490 1 490 0.719546 0.880138 0 -2.22523 
491 1 491 0.719555 0.920141 0 -0.622797 
492 1 492 0.719559 0.960151 0 -0.21486 
493 1 493 0.719564 1.00016 0 -0.255964 
494 1 494 0.76 0 0 0 
495 1 495 0.759927 0.0399926 0 0.201249 
496 1 496 0.759855 0.0799921 0 0.853758 
497 1 497 0.759786 0.119994 0 1.87883 
498 1 498 0.759722 0.159995 0 2.21642 
499 1 499 0.75966 0.200003 0 1.93634 
500 1 500 0.75961 0.240016 0 1.23014 
501 1 501 0.759565 0.280037 0 0.353526 
502 1 502 0.759519 0.320059 0 -0.178974 
503 1 503 0.759479 0.360084 0 -0.525842 
504 1 504 0.759447 0.400105 0 -0.841057 
505 1 505 0.759425 0.440124 0 -1.37164 
506 1 506 0.759419 0.480135 0 -1.60362 
507 1 507 0.759419 0.520139 0 -1.94358 
508 1 508 0.759427 0.560136 0 -2.44945 
509 1 509 0.759431 0.600128 0 -2.8535 
510 1 510 0.759432 0.640121 0 -3.39304 
511 1 511 0.759431 0.680113 0 -3.69778 
512 1 512 0.759436 0.720108 0 -3.97145 
513 1 513 0.759453 0.760105 0 -4.25469 
514 1 514 0.759476 0.800109 0 -4.06831 
515 1 515 0.7595 0.840115 0 -3.40192 
516 1 516 0.759525 0.880126 0 -1.89572 
517 1 517 0.759535 0.920134 0 -0.215841 
518 1 518 0.759534 0.960145 0 -0.104623 
519 1 519 0.759537 1.00016 0 -0.544333 
520 1 520 0.8 0 0 0 
521 1 521 0.799915 0.0399934 0 0.501314 
522 1 522 0.799843 0.0799919 0 0.989292 
523 1 523 0.799778 0.119993 0 1.63392 
524 1 524 0.799712 0.159992 0 1.85954 
525 1 525 0.799645 0.199998 0 1.66975 
526 1 526 0.799588 0.240008 0 0.782591 
527 1 527 0.799539 0.280027 0 -0.312216 
528 1 528 0.79949 0.320047 0 -0.776972 
529 1 529 0.799449 0.360069 0 -0.892416 
530 1 530 0.799416 0.400086 0 -0.873186 
531 1 531 0.799394 0.440102 0 -1.16611 
532 1 532 0.799393 0.480111 0 -1.30204 
533 1 533 0.799397 0.520115 0 -1.64421 
534 1 534 0.799408 0.560114 0 -2.13812 
535 1 535 0.799409 0.60011 0 -2.5554 
536 1 536 0.799407 0.640106 0 -3.1309 
537 1 537 0.799407 0.6801 0 -3.45272 
538 1 538 0.799415 0.720098 0 -3.76898 
539 1 539 0.799431 0.760095 0 -4.00681 
540 1 540 0.799453 0.8001 0 -3.65023 
541 1 541 0.799473 0.840109 0 -2.90218 
542 1 542 0.7995 0.880122 0 -1.58152 
543 1 543 0.799512 0.920134 0 0.00488957 
544 1 544 0.799507 0.960145 0 -0.0626109 
545 1 545 0.799512 1.00016 0 -0.726748 
546 1 546 0.84 0 0 0 
547 1 547 0.83991 0.0399934 0 0.758406 
548 1 548 0.839836 0.0799888 0 1.02706 
549 1 549 0.839771 0.119987 0 1.23463 
550 1 550 0.839704 0.159984 0 1.35388 
551 1 551 0.839635 0.199987 0 1.29447 
552 1 552 0.839571 0.239993 0 0.374462 
553 1 553 0.839515 0.280008 0 -0.792675 
554 1 554 0.839463 0.320024 0 -1.16122 
555 1 555 0.83942 0.360043 0 -1.10922 
556 1 556 0.839387 0.400058 0 -0.892148 
557 1 557 0.839368 0.44007 0 -0.983586 
558 1 558 0.839372 0.480078 0 -0.993385 
559 1 559 0.839381 0.520082 0 -1.3146 
560 1 560 0.839397 0.560084 0 -1.81203 
561 1 561 0.839405 0.600085 0 -2.3088 
562 1 562 0.839411 0.640087 0 -2.93885 
563 1 563 0.839413 0.680085 0 -3.30239 
564 1 564 0.839417 0.720086 0 -3.67911 
565 1 565 0.839425 0.760086 0 -3.79398 
566 1 566 0.839438 0.800094 0 -3.19851 
567 1 567 0.83945 0.840106 0 -2.33621 
568 1 568 0.839473 0.880121 0 -1.2453 
569 1 569 0.839488 0.920136 0 0.131145 
570 1 570 0.839485 0.960147 0 0.014574 
571 1 571 0.839492 1.00016 0 -0.699288 
572 1 572 0.88 0 0 0 
573 1 573 0.879906 0.0399944 0 0.874823 
574 1 574 0.879833 0.0799873 0 0.940664 
575 1 575 0.87977 0.119983 0 0.787649 
576 1 576 0.879701 0.159977 0 0.826044 
577 1 577 0.879626 0.199976 0 0.896332 
578 1 578 0.879555 0.239977 0 0.0834167 
579 1 579 0.879492 0.279987 0 -1.06 
580 1 580 0.879436 0.319999 0 -1.40431 
581 1 581 0.879393 0.360014 0 -1.23986 
582 1 582 0.879363 0.400026 0 -0.875821 
583 1 583 0.879345 0.440036 0 -0.846427 
584 1 584 0.879349 0.480043 0 -0.821107 
585 1 585 0.879359 0.520049 0 -1.16851 
586 1 586 0.879374 0.560055 0 -1.68444 
587 1 587 0.879377 0.600062 0 -2.23343 
588 1 588 0.879381 0.640068 0 -2.82588 
589 1 589 0.879384 0.680071 0 -3.1323 
590 1 590 0.879392 0.720076 0 -3.47484 
591 1 591 0.8794 0.760079 0 -3.41847 
592 1 592 0.87941 0.80009 0 -2.65307 
593 1 593 0.879421 0.840103 0 -1.74105 
594 1 594 0.879443 0.880118 0 -0.931757 
595 1 595 0.879461 0.920135 0 0.119997 
596 1 596 0.879463 0.960146 0 0.101036 
597 1 597 0.879472 1.00016 0 -0.461187 
598 1 598 0.92 0 0 0 
599 1 599 0.919912 0.0399948 0 0.884791 
600 1 600 0.919838 0.0799854 0 0.819056 
601 1 601 0.91977 0.119978 0 0.392294 
602 1 602 0.919697 0.159971 0 0.300414 
603 1 603 0.91962 0.199967 0 0.40044 
604 1 604 0.919543 0.239963 0 -0.231596 
605 1 605 0.919472 0.279968 0 -1.17225 
606 1 606 0.919414 0.319975 0 -1.4382 
607 1 607 0.91937 0.359983 0 -1.31439 
608 1 608 0.91934 0.399991 0 -1.00214 
609 1 609 0.919325 0.439997 0 -0.897727 
610 1 610 0.919332 0.480003 0 -0.819902 
611 1 611 0.919343 0.520011 0 -1.15156 
612 1 612 0.91936 0.56002 0 -1.59874 
613 1 613 0.919368 0.600031 0 -2.11328 
614 1 614 0.919381 0.640042 0 -2.65196 
615 1 615 0.919386 0.68005 0 -2.88644 
616 1 616 0.91939 0.72006 0 -3.09817 
617 1 617 0.91939 0.760068 0 -2.79014 
618 1 618 0.919392 0.800082 0 -1.8788 
619 1 619 0.919397 0.840096 0 -0.980003 
620 1 620 0.919415 0.880113 0 -0.50662 
621 1 621 0.919437 0.92013 0 0.123718 
622 1 622 0.919445 0.960141 0 0.235236 
623 1 623 0.919455 1.00015 0 -0.0855542 
624 1 624 0.96 0 0 0 
625 1 625 0.959916 0.0399966 0 0.788763 
626 1 626 0.959843 0.0799863 0 0.661342 
627 1 627 0.959773 0.119977 0 0.0774069 
628 1 628 0.959696 0.15997 0 -0.164462 
629 1 629 0.959615 0.199963 0 -0.135938 
630 1 630 0.959531 0.239957 0 -0.561646 
631 1 631 0.959454 0.279955 0 -1.23536 
632 1 632 0.959393 0.319956 0 -1.48576 
633 1 633 0.959348 0.359958 0 -1.48873 
634 1 634 0.959322 0.399962 0 -1.24453 
635 1 635 0.95931 0.439964 0 -1.06598 
636 1 636 0.959314 0.479969 0 -0.935222 
637 1 637 0.95932 0.519977 0 -1.19723 
638 1 638 0.959332 0.55999 0 -1.51445 
639 1 639 0.959334 0.600004 0 -1.90153 
640 1 640 0.959343 0.64002 0 -2.28283 
641 1 641 0.95935 0.680031 0 -2.37569 
642 1 642 0.959357 0.720044 0 -2.47765 
643 1 643 0.959358 0.760055 0 -2.07374 
644 1 644 0.959361 0.80007 0 -1.15904 
645 1 645 0.959366 0.840085 0 -0.345018 
646 1 646 0.959383 0.880103 0 -0.225861 
647 1 647 0.959408 0.92012 0 0.000198414 
648 1 648 0.959422 0.960132 0 0.234715 
649 1 649 0.959436 1.00014 0 0.136265 
650 1 650 1 0 0 0 
651 1 651 0.999928 0.0399967 0 0.593836 
652 1 652 0.999852 0.0799871 0 0.485813 
653 1 653 0.999775 0.119978 0 -0.1052 
654 1 654 0.999693 0.159971 0 -0.50915 
655 1 655 0.999611 0.199963 0 -0.719116 
656 1 656 0.999523 0.239955 0 -1.03249 
657 1 657 0.999441 0.279947 0 -1.39406 
658 1 658 0.999379 0.319942 0 -1.56902 
659 1 659 0.999334 0.359937 0 -1.66379 
660 1 660 0.999308 0.399935 0 -1.46461 
661 1 661 0.999296 0.439933 0 -1.251 
662 1 662 0.999299 0.479936 0 -1.08217 
663 1 663 0.999303 0.519944 0 -1.18291 
664 1 664 0.999315 0.559958 0 -1.3071 
665 1 665 0.999323 0.599975 0 -1.52453 
666 1 666 0.999337 0.639991 0 -1.7573 
667 1 667 0.999345 0.680008 0 -1.74351 
668 1 668 0.999349 0.720024 0 -1.69369 
669 1 669 0.999345 0.760039 0 -1.21938 
670 1 670 0.999342 0.800056 0 -0.439522 
671 1 671 0.999344 0.840072 0 0.162524 
672 1 672 0.999357 0.880089 0 -0.0479703 
673 1 673 0.999382 0.920107 0 -0.16735 
674 1 674 0.999399 0.960123 0 0.0433434 
675 1 675 0.999413 1.00014 0 0.0286268 
676 1 676 1.04 0 0 0 
677 1 677 1.03993 0.0399969 0 0.360534 
678 1 678 1.03986 0.0799889 0 0.290283 
679 1 679 1.03978 0.119981 0 -0.307901 
680 1 680 1.03969 0.159974 0 -0.914866 
681 1 681 1.03961 0.199965 0 -1.35131 
682 1 682 1.03952 0.239956 0 -1.51772 
683 1 683 1.03943 0.279943 0 -1.55546 
684 1 684 1.03937 0.319933 0 -1.67446 
685 1 685 1.03932 0.359922 0 -1.92142 
686 1 686 1.0393 0.399915 0 -1.80338 
687 1 687 1.03929 0.43991 0 -1.51527 
688 1 688 1.03928 0.479912 0 -1.18052 
689 1 689 1.03928 0.519919 0 -1.03204 
690 1 690 1.03928 0.559934 0 -1.02147 
691 1 691 1.03928 0.599952 0 -1.07331 
692 1 692 1.03929 0.63997 0 -1.11909 
693 1 693 1.0393 0.679989 0 -1.05063 
694 1 694 1.03931 0.720005 0 -0.959922 
695 1 695 1.03931 0.760022 0 -0.603755 
696 1 696 1.03931 0.800039 0 -0.127387 
697 1 697 1.03931 0.840056 0 0.226575 
698 1 698 1.03932 0.880074 0 -0.226395 
699 1 699 1.03935 0.920091 0 -0.582501 
700 1 700 1.03937 0.960111 0 -0.284716 
701 1 701 1.03938 1.00013 0 -0.144236 
702 1 702 1.08 0 0 0 
703 1 703 1.07994 0.0399952 0 0.0673032 
704 1 704 1.07987 0.0799875 0 0.0629771 
705 1 705 1.07978 0.11998 0 -0.427911 
706 1 706 1.07969 0.159974 0 -1.20634 
707 1 707 1.07961 0.199964 0 -1.93376 
708 1 708 1.07952 0.239955 0 -2.06051 
709 1 709 1.07943 0.279939 0 -1.83968 
710 1 710 1.07937 0.319924 0 -1.84984 
711 1 711 1.07932 0.359908 0 -2.1134 
712 1 712 1.07929 0.399896 0 -1.96399 
713 1 713 1.07928 0.439888 0 -1.63752 
714 1 714 1.07927 0.479887 0 -1.27448 
715 1 715 1.07926 0.519894 0 -0.9437 
716 1 716 1.07926 0.559908 0 -0.748834 
717 1 717 1.07927 0.599926 0 -0.559198 
718 1 718 1.07928 0.639945 0 -0.430952 
719 1 719 1.07929 0.679965 0 -0.381844 
720 1 720 1.07929 0.719985 0 -0.302403 
721 1 721 1.07929 0.760005 0 -0.140559 
722 1 722 1.07929 0.800023 0 -0.0742127 
723 1 723 1.07929 0.840039 0 -0.0147397 
724 1 724 1.0793 0.880057 0 -0.672866 
725 1 725 1.07932 0.920076 0 -1.2493 
726 1 726 1.07933 0.960098 0 -0.823095 
727 1 727 1.07934 1.00012 0 -0.47054 
728 1 728 1.12 0 0 0 
729 1 729 1.11994 0.0399948 0 -0.168936 
730 1 730 1.11987 0.0799881 0 -0.142919 
731 1 731 1.11978 0.11998 0 -0.53706 
732 1 732 1.11969 0.159973 0 -1.44415 
733 1 733 1.1196 0.199962 0 -2.4117 
734 1 734 1.11952 0.239953 0 -2.55621 
735 1 735 1.11944 0.279935 0 -2.16771 
736 1 736 1.11937 0.319917 0 -2.03896 
737 1 737 1.11932 0.359898 0 -2.27252 
738 1 738 1.11929 0.399883 0 -2.12336 
739 1 739 1.11927 0.439873 0 -1.76388 
740 1 740 1.11925 0.479871 0 -1.33382 
741 1 741 1.11923 0.519876 0 -0.815362 
742 1 742 1.11922 0.559888 0 -0.497225 
743 1 743 1.11922 0.599905 0 -0.183079 
744 1 744 1.11923 0.639924 0 0.0925809 
745 1 745 1.11923 0.679945 0 0.184231 
746 1 746 1.11924 0.719965 0 0.255944 
747 1 747 1.11924 0.759985 0 0.179473 
748 1 748 1.11925 0.800003 0 -0.225222 
749 1 749 1.11925 0.84002 0 -0.498944 
750 1 750 1.11926 0.88004 0 -1.28978 
751 1 751 1.11928 0.920059 0 -1.98717 
752 1 752 1.11929 0.960084 0 -1.44137 
753 1 753 1.1193 1.0001 0 -0.913051 
754 1 754 1.16 0 0 0 
755 1 755 1.15995 0.0399934 0 -0.309793 
756 1 756 1.15987 0.0799862 0 -0.348429 
757 1 757 1.15978 0.119977 0 -0.738299 
758 1 758 1.15969 0.159969 0 -1.68163 
759 1 759 1.15961 0.199957 0 -2.68615 
760 1 760 1.15952 0.239947 0 -2.83094 
761 1 761 1.15944 0.279929 0 -2.45255 
762 1 762 1.15938 0.31991 0 -2.27987 
763 1 763 1.15933 0.359888 0 -2.44709 
764 1 764 1.15929 0.39987 0 -2.29565 
765 1 765 1.15926 0.439857 0 -1.94293 
766 1 766 1.15924 0.479852 0 -1.49493 
767 1 767 1.15921 0.519855 0 -0.816784 
768 1 768 1.1592 0.559864 0 -0.302632 
769 1 769 1.1592 0.599879 0 0.210062 
770 1 770 1.15921 0.639897 0 0.675031 
771 1 771 1.15922 0.67992 0 0.771689 
772 1 772 1.15922 0.719943 0 0.713025 
773 1 773 1.15922 0.759965 0 0.382607 
774 1 774 1.15922 0.799985 0 -0.458453 
775 1 775 1.15922 0.840003 0 -1.08785 
776 1 776 1.15923 0.880022 0 -1.98788 
777 1 777 1.15924 0.920042 0 -2.77191 
778 1 778 1.15925 0.96007 0 -2.19466 