ITEM: TIMESTEP
0
ITEM: NUMBER OF ATOMS
6875
ITEM: BOX BOUNDS sm sm sm
0 4
0 2
0 0
ITEM: ATOMS id type tag x y z damage s11 s22 s33 s12 s13 s23 vx T ienergy 
1 1 1 0.0200041 0.0200029 0 0 0.0903717 0.0746371 0.0528507 0.0296543 0 0 0.0560716 0 0 
2 1 2 0.0200093 0.060006 0 0 0.160676 0.0852672 0.0787597 0.0284833 0 0 0.0144456 0 0 
3 1 3 0.0200097 0.100007 0 0 0.171602 0.0818527 0.0811609 0.0294607 0 0 -0.0202034 0 0 
4 1 4 0.0200105 0.140007 0 0 0.175511 0.0840967 0.0831281 0.0296291 0 0 0.324305 0 0 
5 1 5 0.0200098 0.180006 0 0 0.164289 0.0703829 0.07515 0.0258111 0 0 0.291652 0 0 
6 1 6 0.0200097 0.220005 0 0 0.152857 0.0648967 0.069737 0.0215547 0 0 0.363881 0 0 
7 1 7 0.020008 0.260004 0 0 0.128629 0.0522841 0.0579473 0.012563 0 0 0.397248 0 0 
8 1 8 0.0200066 0.300003 0 0 0.102589 0.0431383 0.0466865 0.0105467 0 0 0.305939 0 0 
9 1 9 0.0200046 0.340002 0 0 0.0719014 0.0238701 0.0306931 0.00282916 0 0 0.203879 0 0 
10 1 10 0.0200032 0.379999 0 0 0.0428471 0.00238038 0.0145065 -0.00318646 0 0 -0.0850447 0 0 
11 1 11 0.0200012 0.419997 0 0 0.016645 -0.0109303 0.0018488 -0.0194264 0 0 -0.171352 0 0 
12 1 12 0.0199996 0.459993 0 0 -0.0133381 -0.0296118 -0.0137458 -0.0303787 0 0 -0.565917 0 0 
13 1 13 0.0199966 0.49999 0 0 -0.046326 -0.0356427 -0.0262528 -0.0494208 0 0 -0.680767 0 0 
14 1 14 0.0199931 0.539987 0 0 -0.0944705 -0.0674523 -0.0518884 -0.0565061 0 0 -1.20924 0 0 
15 1 15 0.0199893 0.579985 0 0 -0.127555 -0.0711592 -0.0636886 -0.0728141 0 0 -1.24789 0 0 
16 1 16 0.0199863 0.619982 0 0 -0.163701 -0.0967321 -0.0834885 -0.0759428 0 0 -1.76109 0 0 
17 1 17 0.0199844 0.659979 0 0 -0.186286 -0.109558 -0.0948516 -0.0946268 0 0 -1.54083 0 0 
18 1 18 0.019983 0.699976 0 0 -0.215363 -0.113596 -0.105479 -0.105013 0 0 -1.27298 0 0 
19 1 19 0.0199831 0.739973 0 0 -0.22856 -0.131537 -0.115473 -0.110612 0 0 -1.12095 0 0 
20 1 20 0.0199851 0.77997 0 0 -0.217816 -0.114709 -0.106623 -0.126766 0 0 -0.59057 0 0 
21 1 21 0.0199848 0.819969 0 0 -0.226978 -0.121575 -0.111766 -0.134769 0 0 -0.473535 0 0 
22 1 22 0.0199869 0.859966 0 0 -0.203323 -0.109118 -0.100176 -0.137261 0 0 -0.606518 0 0 
23 1 23 0.0199858 0.899967 0 0 -0.211713 -0.073138 -0.0913221 -0.154353 0 0 0.493741 0 0 
24 1 24 0.0199862 0.939972 0 0 -0.190383 -0.0643685 -0.0816695 -0.10065 0 0 -0.630117 0 0 
25 1 25 0.0199998 0.979977 0 0 0.0388868 0.0272262 0.0112104 -0.0810667 0 0 0.461498 0 0 
26 1 26 0.0600116 0.0200069 0 0 0.0946615 0.126925 0.0709602 0.0555645 0 0 0.306217 0 0 
27 1 27 0.0600274 0.0600164 0 0 0.134358 0.10208 0.0757145 0.0315694 0 0 0.851208 0 0 
28 1 28 0.0600308 0.100021 0 0 0.154215 0.0893365 0.0779914 0.0355256 0 0 1.39389 0 0 
29 1 29 0.0600336 0.140022 0 0 0.17077 0.0862419 0.0823008 0.0399511 0 0 1.89895 0 0 
30 1 30 0.0600323 0.180021 0 0 0.165706 0.0599884 0.0722772 0.0322964 0 0 1.59531 0 0 
31 1 31 0.0600313 0.220018 0 0 0.1606 0.0572397 0.0697637 0.0302104 0 0 1.27592 0 0 
32 1 32 0.0600259 0.260014 0 0 0.126909 0.0327272 0.0511335 0.0118487 0 0 1.08101 0 0 
33 1 33 0.0600213 0.300011 0 0 0.103825 0.0279949 0.042229 0.0162171 0 0 0.542538 0 0 
34 1 34 0.0600161 0.340007 0 0 0.0770294 0.000972923 0.0249966 -0.00166177 0 0 0.307925 0 0 
35 1 35 0.0600129 0.38 0 0 0.0571356 -0.0265058 0.00982477 0.000462017 0 0 -0.235174 0 0 
36 1 36 0.0600084 0.41999 0 0 0.0344449 -0.0441948 -0.00311087 -0.0298985 0 0 -0.0746072 0 0 
37 1 37 0.0600031 0.45998 0 0 -0.00481906 -0.0719208 -0.024581 -0.0337748 0 0 -0.802757 0 0 
38 1 38 0.0599959 0.49997 0 0 -0.0336289 -0.0613073 -0.0304141 -0.0679946 0 0 -0.673107 0 0 
39 1 39 0.0599884 0.539962 0 0 -0.0869735 -0.102428 -0.0607038 -0.0610463 0 0 -1.12233 0 0 
40 1 40 0.059983 0.579954 0 0 -0.104765 -0.0874188 -0.0615954 -0.0857413 0 0 0.0683194 0 0 
41 1 41 0.0599777 0.619947 0 0 -0.147317 -0.121288 -0.0861106 -0.0771753 0 0 0.293342 0 0 
42 1 42 0.0599747 0.659938 0 0 -0.168632 -0.141407 -0.0994057 -0.0959515 0 0 0.793071 0 0 
43 1 43 0.0599688 0.699929 0 0 -0.174183 -0.119341 -0.0941069 -0.107156 0 0 1.03256 0 0 
44 1 44 0.0599653 0.739922 0 0 -0.20511 -0.153262 -0.114919 -0.0986198 0 0 -0.236661 0 0 
45 1 45 0.0599646 0.779914 0 0 -0.202019 -0.129387 -0.106264 -0.113765 0 0 0.00518233 0 0 
46 1 46 0.0599631 0.819909 0 0 -0.197797 -0.131114 -0.105462 -0.112903 0 0 -0.53278 0 0 
47 1 47 0.0599643 0.859904 0 0 -0.204468 -0.124781 -0.105573 -0.11259 0 0 -0.544987 0 0 
48 1 48 0.05996 0.899904 0 0 -0.194026 -0.0654997 -0.0831934 -0.158202 0 0 1.00621 0 0 
49 1 49 0.059961 0.93991 0 0 -0.169666 -0.0378758 -0.0665175 -0.0961218 0 0 -0.717418 0 0 
50 1 50 0.0599909 0.979917 0 0 -0.114801 0.00117289 -0.036407 -0.0759833 0 0 1.43858 0 0 
51 1 51 0.100015 0.0200085 0 0 0.0884265 0.150255 0.0764196 0.0699727 0 0 0.147108 0 0 
52 1 52 0.100038 0.0600239 0 0 0.121744 0.136168 0.08258 0.0381021 0 0 0.773345 0 0 
53 1 53 0.100046 0.100034 0 0 0.145878 0.111302 0.0823511 0.0357747 0 0 2.13692 0 0 
54 1 54 0.100053 0.140039 0 0 0.165062 0.0965627 0.0837748 0.0408862 0 0 2.6393 0 0 
55 1 55 0.100054 0.180038 0 0 0.159631 0.0504005 0.0672638 0.0297358 0 0 2.48876 0 0 
56 1 56 0.100052 0.220035 0 0 0.162828 0.0537991 0.0693759 0.0270993 0 0 1.69189 0 0 
57 1 57 0.100044 0.260028 0 0 0.125735 0.00700287 0.0425216 -0.000921737 0 0 1.04812 0 0 
58 1 58 0.100036 0.300021 0 0 0.107867 0.00977376 0.0376863 0.0109068 0 0 -0.040168 0 0 
59 1 59 0.100029 0.340011 0 0 0.0780169 -0.0347116 0.0138802 -0.0113566 0 0 -0.328172 0 0 
60 1 60 0.100025 0.379999 0 0 0.0688805 -0.0496977 0.00615482 -0.00125318 0 0 -0.922837 0 0 
61 1 61 0.100019 0.419984 0 0 0.0461979 -0.0847535 -0.0123445 -0.0408855 0 0 -0.886667 0 0 
62 1 62 0.100009 0.459967 0 0 0.0157104 -0.0967266 -0.0259553 -0.0399126 0 0 -1.93919 0 0 
63 1 63 0.0999967 0.499951 0 0 -0.00461036 -0.0890158 -0.0299974 -0.0755707 0 0 -2.42109 0 0 
64 1 64 0.0999817 0.539938 0 0 -0.0472448 -0.108749 -0.0499915 -0.0683498 0 0 -3.19145 0 0 
65 1 65 0.0999706 0.579925 0 0 -0.0625187 -0.102322 -0.0528271 -0.0839075 0 0 -2.7933 0 0 
66 1 66 0.0999601 0.619914 0 0 -0.0792317 -0.108442 -0.0601492 -0.0812995 0 0 -2.03276 0 0 
67 1 67 0.0999532 0.659901 0 0 -0.12221 -0.144731 -0.0855756 -0.0859567 0 0 -1.88028 0 0 
68 1 68 0.0999457 0.699889 0 0 -0.121059 -0.112057 -0.0747248 -0.0958138 0 0 -0.985492 0 0 
69 1 69 0.099941 0.739879 0 0 -0.164907 -0.151146 -0.101337 -0.0818663 0 0 -1.74626 0 0 
70 1 70 0.0999403 0.779869 0 0 -0.167014 -0.126858 -0.0942207 -0.0903112 0 0 -1.36846 0 0 
71 1 71 0.0999405 0.819861 0 0 -0.173889 -0.137843 -0.09995 -0.0832405 0 0 -1.84128 0 0 
72 1 72 0.0999412 0.859853 0 0 -0.176485 -0.117633 -0.0943006 -0.096841 0 0 -1.56466 0 0 
73 1 73 0.0999353 0.89985 0 0 -0.168091 -0.098581 -0.085488 -0.126048 0 0 -0.130653 0 0 
74 1 74 0.0999388 0.939848 0 0 -0.152063 -0.0625625 -0.0687839 -0.0706383 0 0 -0.222931 0 0 
75 1 75 0.099967 0.979854 0 0 -0.197073 -0.034771 -0.0743102 -0.0504218 0 0 2.35886 0 0 
76 1 76 0.140018 0.02001 0 0 0.078904 0.160693 0.0767147 0.0767067 0 0 0.1507 0 0 
77 1 77 0.140045 0.0600285 0 0 0.0970753 0.152041 0.079766 0.0468259 0 0 1.00646 0 0 
78 1 78 0.140061 0.100042 0 0 0.118223 0.111835 0.0736656 0.034671 0 0 3.01645 0 0 
79 1 79 0.140071 0.140049 0 0 0.146993 0.100557 0.0792653 0.0310254 0 0 3.47597 0 0 
80 1 80 0.140076 0.180049 0 0 0.144542 0.0426853 0.0599621 0.0154835 0 0 3.25122 0 0 
81 1 81 0.140075 0.220045 0 0 0.153401 0.0441136 0.0632569 0.0055969 0 0 2.26068 0 0 
82 1 82 0.140065 0.260036 0 0 0.125545 -0.0136869 0.0358353 -0.0224236 0 0 1.41985 0 0 
83 1 83 0.140055 0.300026 0 0 0.119721 -0.00673004 0.0361974 -0.011411 0 0 0.273605 0 0 
84 1 84 0.140047 0.340012 0 0 0.0916391 -0.0585169 0.0106192 -0.022588 0 0 -0.467478 0 0 
85 1 85 0.140042 0.379996 0 0 0.0851756 -0.0634137 0.00698227 -0.014431 0 0 -1.18018 0 0 
86 1 86 0.140036 0.419977 0 0 0.0615391 -0.100278 -0.012402 -0.0419242 0 0 -1.46071 0 0 
87 1 87 0.140023 0.459957 0 0 0.044248 -0.106434 -0.0199188 -0.0459556 0 0 -2.16976 0 0 
88 1 88 0.140007 0.499937 0 0 0.0184516 -0.108664 -0.028903 -0.0662217 0 0 -2.93268 0 0 
89 1 89 0.139989 0.539919 0 0 -0.0143511 -0.120659 -0.0432632 -0.0700338 0 0 -2.78959 0 0 
90 1 90 0.139975 0.579901 0 0 -0.0538074 -0.121874 -0.0563049 -0.068783 0 0 -1.79397 0 0 
91 1 91 0.139966 0.619887 0 0 -0.0669592 -0.12186 -0.0605192 -0.0681461 0 0 0.0155287 0 0 
92 1 92 0.139955 0.659871 0 0 -0.1019 -0.139494 -0.0773822 -0.075743 0 0 1.03279 0 0 
93 1 93 0.139944 0.699859 0 0 -0.114214 -0.11939 -0.074884 -0.0733716 0 0 0.761894 0 0 
94 1 94 0.139934 0.739848 0 0 -0.135461 -0.14039 -0.0884373 -0.0653932 0 0 -0.112802 0 0 
95 1 95 0.13993 0.779836 0 0 -0.134881 -0.122241 -0.0824295 -0.0555999 0 0 -0.765403 0 0 
96 1 96 0.139928 0.819827 0 0 -0.139719 -0.131525 -0.0869584 -0.054806 0 0 -1.18202 0 0 
97 1 97 0.139925 0.859818 0 0 -0.156421 -0.11262 -0.0862504 -0.0677655 0 0 -0.902839 0 0 
98 1 98 0.139918 0.899812 0 0 -0.151123 -0.115427 -0.0854484 -0.0731661 0 0 -0.0780941 0 0 
99 1 99 0.13992 0.939808 0 0 -0.155174 -0.070056 -0.0721956 -0.0292741 0 0 0.826386 0 0 
100 1 100 0.139935 0.979814 0 0 -0.230435 -0.0411265 -0.0870574 -0.0151724 0 0 2.18859 0 0 
101 1 101 0.180017 0.0200109 0 0 0.082109 0.170707 0.080955 0.0765933 0 0 -0.171339 0 0 
102 1 102 0.180048 0.0600302 0 0 0.0958351 0.156928 0.0809367 0.0530704 0 0 0.483308 0 0 
103 1 103 0.18007 0.100044 0 0 0.1106 0.107893 0.0699644 0.0372496 0 0 2.49994 0 0 
104 1 104 0.180085 0.14005 0 0 0.131869 0.0863793 0.0698862 0.0226506 0 0 3.22384 0 0 
105 1 105 0.180094 0.180051 0 0 0.135492 0.0444458 0.0576258 0.00304576 0 0 3.09926 0 0 
106 1 106 0.180095 0.220046 0 0 0.139002 0.0214533 0.0513929 -0.0162556 0 0 2.11371 0 0 
107 1 107 0.180087 0.260036 0 0 0.140467 -0.00704236 0.0427402 -0.0372002 0 0 0.854289 0 0 
108 1 108 0.180076 0.300023 0 0 0.133397 -0.0303859 0.033002 -0.0358945 0 0 -0.217568 0 0 
109 1 109 0.180067 0.340006 0 0 0.113013 -0.0559589 0.0182857 -0.0354879 0 0 -1.25385 0 0 
110 1 110 0.180062 0.379988 0 0 0.0945852 -0.0789063 0.00503485 -0.0326082 0 0 -1.97982 0 0 
111 1 111 0.180053 0.419968 0 0 0.0825806 -0.082662 -1.32818e-05 -0.0496506 0 0 -2.45876 0 0 
112 1 112 0.180039 0.459947 0 0 0.0644241 -0.110369 -0.0147121 -0.0568832 0 0 -3.40409 0 0 
113 1 113 0.180018 0.499925 0 0 0.0486674 -0.106163 -0.0184154 -0.072042 0 0 -4.19336 0 0 
114 1 114 0.179996 0.539905 0 0 0.0338272 -0.110875 -0.024682 -0.0674137 0 0 -4.47048 0 0 
115 1 115 0.179975 0.579885 0 0 0.0190159 -0.105572 -0.0277315 -0.0667246 0 0 -3.57292 0 0 
116 1 116 0.17996 0.619869 0 0 -0.00159792 -0.0941191 -0.0306707 -0.0501426 0 0 -2.86975 0 0 
117 1 117 0.179945 0.659853 0 0 -0.0237399 -0.104401 -0.0410642 -0.0653323 0 0 -1.4529 0 0 
118 1 118 0.179931 0.69984 0 0 -0.0402634 -0.0889136 -0.0413958 -0.0504121 0 0 -1.35797 0 0 
119 1 119 0.179921 0.739829 0 0 -0.0757246 -0.106779 -0.0584928 -0.0510812 0 0 -1.58155 0 0 
120 1 120 0.179915 0.779819 0 0 -0.0895099 -0.0964841 -0.0596119 -0.0228603 0 0 -2.09625 0 0 
121 1 121 0.179916 0.81981 0 0 -0.0980031 -0.102727 -0.0643368 -0.0194365 0 0 -2.03537 0 0 
122 1 122 0.17991 0.859803 0 0 -0.101247 -0.0755882 -0.0566724 -0.030465 0 0 -1.07589 0 0 
123 1 123 0.179903 0.899797 0 0 -0.118218 -0.0967729 -0.0689109 -0.00696257 0 0 -0.884024 0 0 
124 1 124 0.179902 0.939795 0 0 -0.130866 -0.0463485 -0.0568026 -0.00591811 0 0 1.26653 0 0 
125 1 125 0.179903 0.979801 0 0 -0.20694 -0.039627 -0.0790455 0.00695564 0 0 1.52001 0 0 
126 1 126 0.220017 0.02001 0 0 0.0673512 0.156232 0.0715991 0.0713584 0 0 -0.217604 0 0 
127 1 127 0.220051 0.0600283 0 0 0.0710674 0.135003 0.065999 0.0564264 0 0 0.557923 0 0 
128 1 128 0.22008 0.10004 0 0 0.0946262 0.0902739 0.0592186 0.0384123 0 0 2.46804 0 0 
129 1 129 0.220101 0.140044 0 0 0.121805 0.062214 0.0589319 0.0165419 0 0 3.00415 0 0 
130 1 130 0.220114 0.180043 0 0 0.134133 0.0408548 0.0560406 -0.0102864 0 0 2.59288 0 0 
131 1 131 0.220117 0.220036 0 0 0.131364 0.00341721 0.0431724 -0.0330631 0 0 1.79211 0 0 
132 1 132 0.220111 0.260026 0 0 0.144559 -0.00316858 0.0452906 -0.0516187 0 0 0.551406 0 0 
133 1 133 0.220101 0.300011 0 0 0.132735 -0.0524052 0.0257389 -0.0571531 0 0 -0.345786 0 0 
134 1 134 0.220092 0.339992 0 0 0.133224 -0.0475103 0.0274637 -0.0540772 0 0 -1.29854 0 0 
135 1 135 0.220085 0.379974 0 0 0.11435 -0.0683837 0.0147347 -0.0478909 0 0 -2.21946 0 0 
136 1 136 0.220075 0.419954 0 0 0.0988134 -0.0752211 0.00756765 -0.0631294 0 0 -2.77288 0 0 
137 1 137 0.220059 0.459935 0 0 0.0837839 -0.0790553 0.00152212 -0.06505 0 0 -3.92129 0 0 
138 1 138 0.220037 0.499914 0 0 0.0559274 -0.117007 -0.0195662 -0.0777539 0 0 -4.0029 0 0 
139 1 139 0.220013 0.539894 0 0 0.0509378 -0.0777866 -0.00859648 -0.0677443 0 0 -3.68939 0 0 
140 1 140 0.219992 0.579876 0 0 -0.00397585 -0.131205 -0.0433226 -0.0635385 0 0 -2.02799 0 0 
141 1 141 0.219973 0.619859 0 0 -0.0179413 -0.0884123 -0.0340834 -0.0437982 0 0 -0.436556 0 0 
142 1 142 0.219956 0.659846 0 0 -0.0572372 -0.104732 -0.0519127 -0.0500822 0 0 0.927946 0 0 
143 1 143 0.219938 0.699834 0 0 -0.0632966 -0.106152 -0.0543081 -0.0262365 0 0 0.616745 0 0 
144 1 144 0.219924 0.739823 0 0 -0.0564324 -0.0781411 -0.0431229 -0.0293467 0 0 0.301034 0 0 
145 1 145 0.219912 0.779816 0 0 -0.084634 -0.082711 -0.0536292 0.00301985 0 0 -1.08707 0 0 
146 1 146 0.219908 0.819811 0 0 -0.102308 -0.06746 -0.0544063 0.0122926 0 0 -1.47288 0 0 
147 1 147 0.219901 0.859808 0 0 -0.098212 -0.0509486 -0.0478014 0.00805481 0 0 -0.428577 0 0 
148 1 148 0.219893 0.899807 0 0 -0.0962125 -0.0633355 -0.0511327 0.0395937 0 0 -0.581494 0 0 
149 1 149 0.219887 0.939806 0 0 -0.105363 -0.0393852 -0.046393 0.0177185 0 0 1.64359 0 0 
150 1 150 0.219877 0.979811 0 0 -0.142341 -0.022826 -0.0529369 0.0322178 0 0 0.634249 0 0 
151 1 151 0.260016 0.0200072 0 0 0.0482938 0.117346 0.0530502 0.0628901 0 0 -0.566143 0 0 
152 1 152 0.260051 0.0600222 0 0 0.0604034 0.111019 0.0549094 0.0622817 0 0 -0.41736 0 0 
153 1 153 0.260087 0.10003 0 0 0.0869001 0.0669794 0.0492912 0.0447249 0 0 1.10151 0 0 
154 1 154 0.260115 0.140032 0 0 0.116163 0.0432118 0.0510474 0.0160729 0 0 1.64511 0 0 
155 1 155 0.260132 0.180028 0 0 0.130435 0.0205604 0.0483635 -0.016175 0 0 1.43392 0 0 
156 1 156 0.260138 0.220019 0 0 0.146106 0.00489744 0.0483682 -0.0381877 0 0 0.912969 0 0 
157 1 157 0.260135 0.260007 0 0 0.165552 -0.00621527 0.0510377 -0.0589722 0 0 -0.27983 0 0 
158 1 158 0.260128 0.299991 0 0 0.165367 -0.0361871 0.0413834 -0.067984 0 0 -1.02291 0 0 
159 1 159 0.260118 0.339973 0 0 0.158744 -0.0382277 0.0386088 -0.0673617 0 0 -1.88872 0 0 
160 1 160 0.260108 0.379956 0 0 0.134083 -0.0361676 0.031371 -0.0622412 0 0 -3.06043 0 0 
161 1 161 0.260095 0.419938 0 0 0.0940191 -0.0754828 0.00594487 -0.0682827 0 0 -3.89679 0 0 
162 1 162 0.260077 0.459922 0 0 0.100061 -0.0329671 0.0214954 -0.0684168 0 0 -4.72316 0 0 
163 1 163 0.260053 0.499905 0 0 0.049325 -0.112339 -0.0201906 -0.0732604 0 0 -4.57577 0 0 
164 1 164 0.260025 0.539887 0 0 0.0697891 -0.0503019 0.00624675 -0.0665304 0 0 -4.37784 0 0 
165 1 165 0.259996 0.579872 0 0 0.0303754 -0.0935701 -0.0202471 -0.0618068 0 0 -3.54893 0 0 
166 1 166 0.259971 0.619857 0 0 0.0263204 -0.0670557 -0.0130499 -0.0363573 0 0 -3.14556 0 0 
167 1 167 0.25995 0.659847 0 0 0.0340856 -0.0247601 0.0029933 -0.0434737 0 0 -1.95431 0 0 
168 1 168 0.25993 0.699838 0 0 -0.0133373 -0.0815616 -0.0304043 -0.0112346 0 0 -2.34438 0 0 
169 1 169 0.259916 0.73983 0 0 0.00246003 -0.0206858 -0.00582966 -0.0126438 0 0 -1.78062 0 0 
170 1 170 0.259904 0.779826 0 0 -0.0188035 -0.0348853 -0.0171936 0.0164211 0 0 -1.95228 0 0 
171 1 171 0.259897 0.819825 0 0 -0.0372013 -0.00439656 -0.0133188 0.0233782 0 0 -2.01211 0 0 
172 1 172 0.259889 0.859828 0 0 -0.0447587 0.00308789 -0.0133463 0.0273232 0 0 -1.10584 0 0 
173 1 173 0.259884 0.89983 0 0 -0.0434917 -0.015976 -0.0190504 0.0560168 0 0 -0.94439 0 0 
174 1 174 0.259875 0.939832 0 0 -0.059094 -0.00953443 -0.0219915 0.0187371 0 0 1.46205 0 0 
175 1 175 0.259859 0.979836 0 0 -0.0856187 -0.013458 -0.0317461 0.0443161 0 0 -0.59486 0 0 
176 1 176 0.300016 0.0200039 0 0 0.0261373 0.0646353 0.0290786 0.0587758 0 0 -0.239707 0 0 
177 1 177 0.300054 0.0600131 0 0 0.0443866 0.0758826 0.0385285 0.0727477 0 0 -0.199006 0 0 
178 1 178 0.300097 0.100017 0 0 0.0687495 0.0335792 0.0327849 0.0570779 0 0 0.434745 0 0 
179 1 179 0.300132 0.140015 0 0 0.115451 0.02844 0.046093 0.0226715 0 0 0.548509 0 0 
180 1 180 0.300153 0.180009 0 0 0.140993 0.0128813 0.0492882 -0.0122618 0 0 0.235264 0 0 
181 1 181 0.300162 0.219999 0 0 0.152718 -0.000820938 0.0486574 -0.0322632 0 0 -0.0836357 0 0 
182 1 182 0.300163 0.259986 0 0 0.16477 -0.0104198 0.0494437 -0.0497276 0 0 -0.743787 0 0 
183 1 183 0.300158 0.29997 0 0 0.165143 -0.0299738 0.0433026 -0.0608261 0 0 -1.09018 0 0 
184 1 184 0.300146 0.339953 0 0 0.152369 -0.029253 0.0394437 -0.065899 0 0 -1.99324 0 0 
185 1 185 0.300132 0.379938 0 0 0.127097 -0.0211868 0.0339336 -0.062733 0 0 -3.20941 0 0 
186 1 186 0.300115 0.419925 0 0 0.0906188 -0.047548 0.0138049 -0.0603573 0 0 -4.13922 0 0 
187 1 187 0.300095 0.459913 0 0 0.0904795 -0.0139692 0.0245102 -0.0602645 0 0 -4.86077 0 0 
188 1 188 0.300069 0.4999 0 0 0.0433127 -0.0786268 -0.0113153 -0.0646903 0 0 -4.15641 0 0 
189 1 189 0.300041 0.539887 0 0 0.0380603 -0.0519015 -0.00443226 -0.0521745 0 0 -3.37391 0 0 
190 1 190 0.300012 0.579874 0 0 0.00341977 -0.0795038 -0.0243772 -0.0528112 0 0 -1.47216 0 0 
191 1 191 0.299985 0.619863 0 0 -0.0363772 -0.0826346 -0.0381373 -0.0272707 0 0 -0.682564 0 0 
192 1 192 0.299962 0.659855 0 0 -0.0426896 -0.0549049 -0.031269 -0.0285995 0 0 0.193199 0 0 
193 1 193 0.29994 0.699848 0 0 -0.0454962 -0.0720926 -0.0376774 -0.00646197 0 0 0.115918 0 0 
194 1 194 0.299922 0.739843 0 0 -0.0388214 -0.0298725 -0.0220035 -0.010298 0 0 -0.0936159 0 0 
195 1 195 0.299905 0.779842 0 0 -0.0540377 -0.0292241 -0.0266736 0.0109746 0 0 -1.0254 0 0 
196 1 196 0.299893 0.819844 0 0 -0.0465243 0.012828 -0.0107878 0.0139605 0 0 -0.783621 0 0 
197 1 197 0.299883 0.85985 0 0 -0.0486746 0.0151228 -0.0107439 0.0305699 0 0 -0.250231 0 0 
198 1 198 0.299879 0.899855 0 0 -0.0372194 0.0103832 -0.00859155 0.0520166 0 0 -0.36801 0 0 
199 1 199 0.299869 0.939859 0 0 -0.0216569 0.0151434 -0.00208409 0.00601348 0 0 1.39423 0 0 
200 1 200 0.299851 0.979863 0 0 -0.0125831 0.0114749 -0.000347012 0.0339131 0 0 -1.43418 0 0 
201 1 201 0.340015 0.0200008 0 0 0.0132888 0.0186015 0.0102192 0.0598808 0 0 -0.40338 0 0 
202 1 202 0.340055 0.0600033 0 0 0.040112 0.0349125 0.0240385 0.0841146 0 0 -1.0163 0 0 
203 1 203 0.340105 0.100003 0 0 0.0675949 0.0144108 0.0262752 0.0753646 0 0 -1.15427 0 0 
204 1 204 0.340147 0.139999 0 0 0.102223 0.0068964 0.0349586 0.0393814 0 0 -0.99701 0 0 
205 1 205 0.340173 0.179991 0 0 0.128997 0.00630603 0.043342 -9.41524e-05 0 0 -0.972376 0 0 
206 1 206 0.340186 0.21998 0 0 0.142889 -0.0141221 0.0412523 -0.018998 0 0 -0.928316 0 0 
207 1 207 0.34019 0.259967 0 0 0.17157 0.00503406 0.0565677 -0.0351562 0 0 -1.13209 0 0 
208 1 208 0.340186 0.299953 0 0 0.166015 -0.0206645 0.0465636 -0.0497938 0 0 -1.52375 0 0 
209 1 209 0.340172 0.339938 0 0 0.155064 -0.0104384 0.0463319 -0.0641129 0 0 -2.44277 0 0 
210 1 210 0.340152 0.379927 0 0 0.128165 0.000178664 0.0411187 -0.0616312 0 0 -3.80046 0 0 
211 1 211 0.340131 0.419917 0 0 0.0872188 -0.0252536 0.0198602 -0.0574944 0 0 -4.9916 0 0 
212 1 212 0.340107 0.459909 0 0 0.0741733 0.00592949 0.0256647 -0.0609136 0 0 -5.46932 0 0 
213 1 213 0.340079 0.499901 0 0 0.031423 -0.0544671 -0.0073805 -0.0596412 0 0 -4.41499 0 0 
214 1 214 0.340047 0.539892 0 0 0.0515125 -0.0133777 0.0122218 -0.0499951 0 0 -3.58835 0 0 
215 1 215 0.340014 0.579884 0 0 0.0358471 -0.0515752 -0.0050338 -0.0479874 0 0 -2.94215 0 0 
216 1 216 0.339982 0.619874 0 0 0.0564848 -0.0179242 0.0123589 -0.030299 0 0 -3.21339 0 0 
217 1 217 0.339955 0.659868 0 0 0.0507687 -0.0158382 0.0111983 -0.0230802 0 0 -3.23425 0 0 
218 1 218 0.339935 0.699862 0 0 0.0430421 -0.0221505 0.00670173 -0.00131471 0 0 -3.24642 0 0 
219 1 219 0.339917 0.739858 0 0 0.0609114 0.0266842 0.0280674 -0.0175982 0 0 -1.8361 0 0 
220 1 220 0.339899 0.779858 0 0 0.015799 -0.0012555 0.00466702 -0.000173929 0 0 -1.94703 0 0 
221 1 221 0.339885 0.81986 0 0 0.0169974 0.0631499 0.0256824 -0.00385267 0 0 -1.24077 0 0 
222 1 222 0.339875 0.859869 0 0 0.00387213 0.0430205 0.0150288 0.0192328 0 0 -0.321612 0 0 
223 1 223 0.339873 0.899875 0 0 0.00140594 0.0434202 0.0143681 0.0372467 0 0 -0.233375 0 0 
224 1 224 0.339865 0.939881 0 0 -0.000376597 0.0281765 0.00891221 -0.00761219 0 0 0.953468 0 0 
225 1 225 0.33985 0.979883 0 0 0.00931555 0.0070668 0.00525859 0.0193617 0 0 -1.84381 0 0 
226 1 226 0.380016 0.0199983 0 0 -0.0100044 -0.0229693 -0.0105611 0.0638568 0 0 -0.180575 0 0 
227 1 227 0.38006 0.0599955 0 0 0.00605625 -0.0172385 -0.00357599 0.100037 0 0 -0.645502 0 0 
228 1 228 0.380115 0.0999916 0 0 0.0435639 -0.00355984 0.012822 0.100448 0 0 -1.43282 0 0 
229 1 229 0.380163 0.139986 0 0 0.0743028 -0.0129742 0.0196529 0.0658554 0 0 -1.74812 0 0 
230 1 230 0.380193 0.179978 0 0 0.113229 -0.00169572 0.03573 0.0275721 0 0 -1.58248 0 0 
231 1 231 0.38021 0.219967 0 0 0.131403 -0.0142328 0.0375361 0.00816721 0 0 -1.22188 0 0 
232 1 232 0.380216 0.259955 0 0 0.143083 -0.0046727 0.0443375 -0.0120747 0 0 -0.992241 0 0 
233 1 233 0.380212 0.299943 0 0 0.136326 -0.0145864 0.0390017 -0.0321135 0 0 -1.27917 0 0 
234 1 234 0.380196 0.339931 0 0 0.123323 -0.0186448 0.0335394 -0.0531876 0 0 -2.13438 0 0 
235 1 235 0.380172 0.379921 0 0 0.111218 0.0136228 0.0399975 -0.0592893 0 0 -3.57068 0 0 
236 1 236 0.380146 0.419914 0 0 0.0623123 -0.0249567 0.0119785 -0.0524329 0 0 -5.11135 0 0 
237 1 237 0.380118 0.459908 0 0 0.0663891 0.0238971 0.0289283 -0.0591415 0 0 -5.32526 0 0 
238 1 238 0.380088 0.499905 0 0 0.0322315 -0.0247744 0.00239555 -0.0534778 0 0 -4.17329 0 0 
239 1 239 0.380058 0.539899 0 0 0.0345662 -0.00779007 0.00858556 -0.0480061 0 0 -2.86052 0 0 
240 1 240 0.380027 0.579894 0 0 0.00367346 -0.0446997 -0.0131391 -0.0540458 0 0 -1.37168 0 0 
241 1 241 0.379996 0.619887 0 0 -0.0183586 -0.0499833 -0.0218962 -0.0350416 0 0 -1.14331 0 0 
242 1 242 0.37997 0.659881 0 0 -0.0144543 -0.0409328 -0.0177425 -0.0298844 0 0 -0.564311 0 0 
243 1 243 0.379948 0.699875 0 0 -0.0275348 -0.057191 -0.0271452 -0.00831796 0 0 -0.762767 0 0 
244 1 244 0.379927 0.739871 0 0 -0.00907002 -0.00477887 -0.00443027 -0.0243499 0 0 -0.0445924 0 0 
245 1 245 0.379904 0.779871 0 0 -0.015933 -0.0172144 -0.0106146 -0.0155071 0 0 0.15381 0 0 
246 1 246 0.379885 0.819873 0 0 -0.0119138 0.0390634 0.00870578 -0.0149575 0 0 0.701822 0 0 
247 1 247 0.379872 0.85988 0 0 -0.0270072 0.024266 -0.000872745 0.00733258 0 0 1.04242 0 0 
248 1 248 0.379871 0.899886 0 0 -0.00659009 0.0430755 0.0116957 0.0168396 0 0 0.922215 0 0 
249 1 249 0.379864 0.939892 0 0 0.0130547 0.0279963 0.0131584 -0.0202407 0 0 0.820002 0 0 
250 1 250 0.379854 0.979893 0 0 0.0438413 0.0123893 0.0180241 0.00245197 0 0 -2.11293 0 0 
251 1 251 0.420017 0.0199969 0 0 -0.00808871 -0.0395524 -0.0152608 0.0700176 0 0 -0.222998 0 0 
252 1 252 0.420062 0.0599908 0 0 0.0108201 -0.037898 -0.00866785 0.113408 0 0 -0.883397 0 0 
253 1 253 0.420119 0.099985 0 0 0.0322815 -0.00858587 0.00759869 0.11603 0 0 -2.33286 0 0 
254 1 254 0.420171 0.13998 0 0 0.0345743 -0.0265778 0.00256871 0.0862181 0 0 -2.65973 0 0 
255 1 255 0.420208 0.179972 0 0 0.0657 -0.0174089 0.0154756 0.05405 0 0 -1.95159 0 0 
256 1 256 0.420228 0.219964 0 0 0.0873646 -0.0235312 0.020454 0.0303736 0 0 -1.34557 0 0 
257 1 257 0.420236 0.259952 0 0 0.0990923 -0.0286983 0.0225558 0.00689614 0 0 -0.846675 0 0 
258 1 258 0.420233 0.299941 0 0 0.116913 -0.0056434 0.035647 -0.017012 0 0 -1.1309 0 0 
259 1 259 0.420215 0.339931 0 0 0.101451 -0.0255509 0.0243223 -0.0450823 0 0 -2.16344 0 0 
260 1 260 0.420187 0.379921 0 0 0.102193 0.0111716 0.0363215 -0.0585431 0 0 -3.76121 0 0 
261 1 261 0.420157 0.419916 0 0 0.0740803 -0.00224227 0.0230215 -0.0543017 0 0 -5.2122 0 0 
262 1 262 0.420127 0.459912 0 0 0.0671324 0.0240419 0.0292114 -0.0591681 0 0 -5.35682 0 0 
263 1 263 0.420095 0.49991 0 0 0.0556312 0.0104419 0.0211718 -0.0566077 0 0 -4.27296 0 0 
264 1 264 0.420063 0.539907 0 0 0.0552332 0.00312948 0.0187039 -0.0517046 0 0 -3.50009 0 0 
265 1 265 0.420029 0.579903 0 0 0.0779106 0.00340537 0.0260564 -0.0562867 0 0 -3.17363 0 0 
266 1 266 0.419996 0.619897 0 0 0.103764 0.0122301 0.0371579 -0.0453158 0 0 -3.83197 0 0 
267 1 267 0.419968 0.659891 0 0 0.0984878 0.00578474 0.0334051 -0.0366119 0 0 -4.11169 0 0 
268 1 268 0.419945 0.699885 0 0 0.0893573 0.0120047 0.0324739 -0.024818 0 0 -3.5941 0 0 
269 1 269 0.419924 0.739882 0 0 0.0620114 0.0175435 0.0254904 -0.0356554 0 0 -1.91151 0 0 
270 1 270 0.419901 0.779881 0 0 0.0276885 0.00642239 0.0109339 -0.0307309 0 0 -0.825167 0 0 
271 1 271 0.41988 0.819882 0 0 0.027331 0.0410184 0.0219015 -0.0349869 0 0 0.849125 0 0 
272 1 272 0.419867 0.859885 0 0 -0.00224163 0.00904675 0.00218461 -0.00254679 0 0 1.35503 0 0 
273 1 273 0.419866 0.899889 0 0 0.00241985 0.0386448 0.0131612 -5.43043e-05 0 0 1.28068 0 0 
274 1 274 0.419863 0.939893 0 0 -0.00156701 0.00659232 0.00161596 -0.0280621 0 0 0.634052 0 0 
275 1 275 0.419858 0.979892 0 0 0.0161701 -0.00427579 0.00382044 -0.00842585 0 0 -1.81276 0 0 
276 1 276 0.460019 0.0199966 0 0 -0.0168573 -0.0487089 -0.0210075 0.0776097 0 0 0.230257 0 0 
277 1 277 0.460067 0.0599892 0 0 -0.022067 -0.064575 -0.0277577 0.120463 0 0 -0.0994893 0 0 
278 1 278 0.460124 0.0999827 0 0 -0.0139194 -0.0260657 -0.0128052 0.12264 0 0 -2.01709 0 0 
279 1 279 0.460177 0.139979 0 0 -0.0121343 -0.0362442 -0.0154957 0.104724 0 0 -2.58706 0 0 
280 1 280 0.460217 0.179974 0 0 0.0266871 -0.0211907 0.00176766 0.0776495 0 0 -1.77947 0 0 
281 1 281 0.460242 0.219967 0 0 0.0502748 -0.0324317 0.00572443 0.0481087 0 0 -0.994068 0 0 
282 1 282 0.460253 0.259956 0 0 0.0590216 -0.0447388 0.00458402 0.0231149 0 0 -0.250345 0 0 
283 1 283 0.46025 0.299946 0 0 0.0807661 -0.0124767 0.021884 -0.00246128 0 0 -0.487139 0 0 
284 1 284 0.460232 0.339937 0 0 0.0711083 -0.0371216 0.0108969 -0.0350183 0 0 -1.37491 0 0 
285 1 285 0.460203 0.379927 0 0 0.0787834 -0.00509897 0.023613 -0.0509962 0 0 -2.97376 0 0 
286 1 286 0.460169 0.419922 0 0 0.0639198 0.000843664 0.0207547 -0.0506376 0 0 -4.39964 0 0 
287 1 287 0.460135 0.459918 0 0 0.0479766 0.00881213 0.0181962 -0.0566243 0 0 -4.76378 0 0 
288 1 288 0.460103 0.499916 0 0 0.0438845 0.0108737 0.0175448 -0.0478268 0 0 -4.1813 0 0 
289 1 289 0.460074 0.539914 0 0 0.0397452 0.000614769 0.0129366 -0.0493275 0 0 -2.86954 0 0 
290 1 290 0.460043 0.57991 0 0 0.0156645 -0.0239748 -0.00265372 -0.0498202 0 0 -2.13848 0 0 
291 1 291 0.460014 0.619905 0 0 -0.00940483 -0.0451519 -0.017476 -0.0491525 0 0 -1.86516 0 0 
292 1 292 0.459985 0.659897 0 0 -0.0327174 -0.0606392 -0.0299121 -0.0448036 0 0 -1.36649 0 0 
293 1 293 0.45996 0.699892 0 0 -0.0422379 -0.0444397 -0.027771 -0.0357325 0 0 -1.08307 0 0 
294 1 294 0.459934 0.739889 0 0 -0.0437436 -0.0368693 -0.025827 -0.0505188 0 0 0.401422 0 0 
295 1 295 0.459906 0.779886 0 0 -0.0463093 -0.0376613 -0.0269048 -0.0420602 0 0 1.4768 0 0 
296 1 296 0.459881 0.819885 0 0 -0.0410231 -0.0165968 -0.0184581 -0.0499311 0 0 2.84652 0 0 
297 1 297 0.459866 0.859884 0 0 -0.0499939 -0.0384898 -0.028352 -0.0203155 0 0 2.81929 0 0 
298 1 298 0.459864 0.899884 0 0 -0.0322175 -0.000713279 -0.0105468 -0.0150286 0 0 2.22507 0 0 
299 1 299 0.459862 0.939885 0 0 -0.0214499 -0.0136113 -0.0112307 -0.030966 0 0 0.788781 0 0 
300 1 300 0.459861 0.979884 0 0 0.0103697 -0.00181208 0.00275009 -0.0137723 0 0 -1.42293 0 0 
301 1 301 0.50002 0.0199966 0 0 -0.0111904 -0.0464692 -0.0184741 0.0829334 0 0 0.161732 0 0 
302 1 302 0.500067 0.0599891 0 0 -0.0197834 -0.0648246 -0.0271064 0.116111 0 0 -0.396785 0 0 
303 1 303 0.500121 0.0999831 0 0 -0.0239593 -0.023522 -0.0152082 0.118337 0 0 -2.28216 0 0 
304 1 304 0.500174 0.139982 0 0 -0.0402228 -0.0328794 -0.0234196 0.112133 0 0 -2.6879 0 0 
305 1 305 0.500219 0.179978 0 0 -0.0208884 -0.0332818 -0.0173511 0.0919997 0 0 -1.80724 0 0 
306 1 306 0.500249 0.219973 0 0 0.00758742 -0.0407243 -0.0106088 0.0574286 0 0 -0.739919 0 0 
307 1 307 0.500262 0.259964 0 0 0.0208734 -0.0564723 -0.0113967 0.0296112 0 0 0.0902624 0 0 
308 1 308 0.500261 0.299955 0 0 0.0497533 -0.0201347 0.00949915 0.0013906 0 0 -0.239119 0 0 
309 1 309 0.500244 0.339947 0 0 0.0463648 -0.0459348 0.000147574 -0.031963 0 0 -1.02534 0 0 
310 1 310 0.500214 0.379937 0 0 0.065252 -0.0115196 0.0172236 -0.0513916 0 0 -2.3657 0 0 
311 1 311 0.500178 0.419932 0 0 0.0576117 -0.00305398 0.0174867 -0.0541594 0 0 -3.64403 0 0 
312 1 312 0.500142 0.459927 0 0 0.0429591 -0.00404707 0.0124699 -0.0590825 0 0 -4.07372 0 0 
313 1 313 0.500108 0.499925 0 0 0.0526513 0.0204575 0.0234222 -0.0435375 0 0 -4.15496 0 0 
314 1 314 0.500078 0.539922 0 0 0.0508672 -0.00402509 0.0150126 -0.0478041 0 0 -3.85374 0 0 
315 1 315 0.500045 0.579917 0 0 0.0795812 0.0065665 0.0276035 -0.0514464 0 0 -4.2742 0 0 
316 1 316 0.500013 0.619911 0 0 0.0887845 -0.00899803 0.0255645 -0.0539695 0 0 -4.86976 0 0 
317 1 317 0.499981 0.659903 0 0 0.0832009 -0.00903536 0.0237645 -0.0522033 0 0 -4.66235 0 0 
318 1 318 0.499953 0.699897 0 0 0.0557338 -0.00101398 0.0175362 -0.0501975 0 0 -3.80441 0 0 
319 1 319 0.499925 0.739893 0 0 0.000330004 -0.0263753 -0.00833895 -0.0604124 0 0 -1.64565 0 0 
320 1 320 0.499898 0.779889 0 0 -0.0179963 -0.0280011 -0.0147344 -0.0498828 0 0 0.390673 0 0 
321 1 321 0.499875 0.819885 0 0 -0.0280186 -0.0483561 -0.0244693 -0.0538462 0 0 2.61453 0 0 
322 1 322 0.49986 0.859879 0 0 -0.0408713 -0.0568036 -0.0312985 -0.025522 0 0 2.87826 0 0 
323 1 323 0.499857 0.899875 0 0 -0.0472738 -0.0285157 -0.0242828 -0.0236455 0 0 2.39404 0 0 
324 1 324 0.499856 0.939874 0 0 -0.061199 -0.0380753 -0.0318125 -0.024953 0 0 0.794142 0 0 
325 1 325 0.499859 0.979874 0 0 -0.0478961 -0.0138216 -0.0197697 -0.0100646 0 0 -1.05837 0 0 
326 1 326 0.540021 0.019996 0 0 -0.0258874 -0.0598607 -0.0274761 0.0856874 0 0 0.522587 0 0 
327 1 327 0.540068 0.0599884 0 0 -0.046054 -0.0736808 -0.0383685 0.103985 0 0 0.393832 0 0 