ITEM: TIMESTEP
0
ITEM: NUMBER OF ATOMS
6875
ITEM: BOX BOUNDS sm sm sm
0 4
0 2
0 0
ITEM: ATOMS id type tag x y z damage s11 s22 s33 s12 s13 s23 vx T ienergy 
1 1 1 0.0199994 0.0200007 0 0 0.0103679 0.00914739 0.00625977 0.00349899 0 0 -0.282841 0 0 
2 1 2 0.0199989 0.0599998 0 0 0.00430302 -0.00535117 -0.000321034 -0.0014278 0 0 -0.420736 0 0 
3 1 3 0.0199976 0.099999 0 0 -0.0199916 -0.018816 -0.0124225 -0.00963414 0 0 -0.383659 0 0 
4 1 4 0.0199971 0.139997 0 0 -0.0403572 -0.0242501 -0.0206928 -0.0120358 0 0 -0.200491 0 0 
5 1 5 0.0199961 0.179997 0 0 -0.0586318 -0.0371115 -0.0306713 -0.0176666 0 0 0.0379543 0 0 
6 1 6 0.0199944 0.219995 0 0 -0.0811826 -0.0409922 -0.039144 -0.0240274 0 0 0.0394587 0 0 
7 1 7 0.0199924 0.259995 0 0 -0.111113 -0.0583008 -0.0542899 -0.0250521 0 0 -0.0190084 0 0 
8 1 8 0.0199905 0.299994 0 0 -0.143435 -0.0656067 -0.0669961 -0.0306418 0 0 0.165923 0 0 
9 1 9 0.0199881 0.339995 0 0 -0.179773 -0.0912338 -0.0868735 -0.026237 0 0 0.0688603 0 0 
10 1 10 0.0199868 0.379994 0 0 -0.202816 -0.0948875 -0.0954379 -0.0330082 0 0 0.306477 0 0 
11 1 11 0.0199845 0.419994 0 0 -0.232238 -0.118662 -0.11251 -0.029854 0 0 0.0934049 0 0 
12 1 12 0.0199825 0.459993 0 0 -0.2487 -0.109336 -0.114802 -0.0370403 0 0 -0.044339 0 0 
13 1 13 0.019979 0.499995 0 0 -0.274928 -0.12429 -0.128023 -0.0249955 0 0 -0.270023 0 0 
14 1 14 0.0199755 0.539996 0 0 -0.281503 -0.108736 -0.125143 -0.0205746 0 0 -0.353462 0 0 
15 1 15 0.0199688 0.580001 0 0 -0.295997 -0.118859 -0.133048 0.00182983 0 0 -0.768333 0 0 
16 1 16 0.0199631 0.620004 0 0 -0.307308 -0.111506 -0.13432 0.0115223 0 0 -0.966449 0 0 
17 1 17 0.0199594 0.66001 0 0 -0.316239 -0.125666 -0.141736 0.0440595 0 0 -1.64666 0 0 
18 1 18 0.0199617 0.700013 0 0 -0.324413 -0.124176 -0.143882 0.046599 0 0 -1.12077 0 0 
19 1 19 0.019963 0.740018 0 0 -0.345205 -0.144935 -0.157228 0.0772366 0 0 -1.32632 0 0 
20 1 20 0.0199683 0.780019 0 0 -0.343508 -0.144252 -0.156462 0.0789948 0 0 -1.02771 0 0 
21 1 21 0.0199682 0.820023 0 0 -0.3746 -0.170461 -0.174869 0.0909385 0 0 -0.794968 0 0 
22 1 22 0.0199713 0.860023 0 0 -0.384905 -0.156908 -0.173827 0.0985501 0 0 -0.713133 0 0 
23 1 23 0.0199688 0.900029 0 0 -0.427425 -0.17498 -0.193297 0.113264 0 0 -0.160172 0 0 
24 1 24 0.0199688 0.940033 0 0 -0.466164 -0.173367 -0.205239 0.139242 0 0 -0.0288642 0 0 
25 1 25 0.019949 0.980054 0 0 -0.664855 -0.147767 -0.270888 0.138956 0 0 0.318348 0 0 
26 1 26 0.0600015 0.0200006 0 0 0.00193333 0.00175037 0.00118982 0.00186744 0 0 -0.629868 0 0 
27 1 27 0.0600029 0.0599975 0 0 -0.0152201 -0.0294141 -0.0142915 -0.0125945 0 0 -0.678501 0 0 
28 1 28 0.0599986 0.0999951 0 0 -0.0231973 -0.0307055 -0.0172592 -0.0205341 0 0 -0.631025 0 0 
29 1 29 0.0599947 0.139992 0 0 -0.030862 -0.0272495 -0.018606 -0.0171446 0 0 -0.400734 0 0 
30 1 30 0.0599914 0.17999 0 0 -0.0548017 -0.0471689 -0.0326688 -0.0212158 0 0 0.205234 0 0 
31 1 31 0.0599866 0.219987 0 0 -0.0770334 -0.0443033 -0.0388787 -0.0292873 0 0 0.35315 0 0 
32 1 32 0.0599802 0.259986 0 0 -0.115513 -0.0637001 -0.0574376 -0.0255726 0 0 0.357518 0 0 
33 1 33 0.0599739 0.299985 0 0 -0.143888 -0.0638608 -0.0665861 -0.0329412 0 0 0.737983 0 0 
34 1 34 0.0599678 0.339985 0 0 -0.172979 -0.0884155 -0.0837955 -0.0159146 0 0 0.211561 0 0 
35 1 35 0.0599641 0.379984 0 0 -0.185966 -0.0847361 -0.0867794 -0.0255033 0 0 0.451176 0 0 
36 1 36 0.0599591 0.419985 0 0 -0.21821 -0.111033 -0.105564 -0.00913444 0 0 0.150339 0 0 
37 1 37 0.0599554 0.459985 0 0 -0.233442 -0.0905612 -0.103885 -0.0205723 0 0 0.564463 0 0 
38 1 38 0.0599502 0.499989 0 0 -0.2732 -0.104216 -0.121029 -0.000358627 0 0 0.869756 0 0 
39 1 39 0.0599495 0.539994 0 0 -0.295364 -0.0870357 -0.122629 -0.00409318 0 0 1.3481 0 0 
40 1 40 0.0599497 0.580005 0 0 -0.326979 -0.0912711 -0.134139 0.0174099 0 0 1.59925 0 0 
41 1 41 0.0599528 0.620014 0 0 -0.345463 -0.0954982 -0.141433 0.0129102 0 0 2.3642 0 0 
42 1 42 0.0599515 0.660027 0 0 -0.363469 -0.0924088 -0.146223 0.0433015 0 0 1.62182 0 0 
43 1 43 0.0599501 0.700038 0 0 -0.374821 -0.117144 -0.157815 0.0375536 0 0 1.87596 0 0 
44 1 44 0.0599429 0.740049 0 0 -0.371978 -0.102253 -0.152118 0.0651166 0 0 1.39805 0 0 
45 1 45 0.0599408 0.780058 0 0 -0.384351 -0.142663 -0.169073 0.0765834 0 0 0.971379 0 0 
46 1 46 0.0599342 0.820065 0 0 -0.377774 -0.124642 -0.161168 0.0771035 0 0 1.63482 0 0 
47 1 47 0.0599264 0.860074 0 0 -0.418554 -0.143639 -0.180381 0.0980159 0 0 0.293273 0 0 
48 1 48 0.0599167 0.900085 0 0 -0.426217 -0.106271 -0.170825 0.0983565 0 0 0.454332 0 0 
49 1 49 0.0598999 0.940108 0 0 -0.53357 -0.077719 -0.196157 0.118621 0 0 -0.00917631 0 0 
50 1 50 0.0598582 0.980143 0 0 -0.500491 0.0323445 -0.150171 0.0247673 0 0 0.250645 0 0 
51 1 51 0.0999998 0.0199985 0 0 -0.0131254 -0.0286068 -0.0133754 -0.000280799 0 0 -1.02093 0 0 
52 1 52 0.099999 0.0599937 0 0 -0.0178724 -0.0361197 -0.0172971 -0.0165236 0 0 -1.13764 0 0 
53 1 53 0.0999947 0.0999906 0 0 -0.0246892 -0.034946 -0.0190984 -0.0231668 0 0 -1.07728 0 0 
54 1 54 0.0999899 0.139987 0 0 -0.0389419 -0.0358609 -0.0239593 -0.0218425 0 0 -0.949278 0 0 
55 1 55 0.0999843 0.179984 0 0 -0.0648561 -0.0521682 -0.0374979 -0.0262606 0 0 -0.512228 0 0 
56 1 56 0.0999754 0.219981 0 0 -0.084299 -0.0494766 -0.0428695 -0.0337147 0 0 -0.261536 0 0 
57 1 57 0.0999652 0.259981 0 0 -0.110344 -0.0543924 -0.0527988 -0.0291047 0 0 0.0895132 0 0 
58 1 58 0.0999546 0.29998 0 0 -0.135624 -0.0576402 -0.0619452 -0.0338043 0 0 0.553553 0 0 
59 1 59 0.0999457 0.339982 0 0 -0.159506 -0.0687448 -0.0731676 -0.0112732 0 0 -0.0857737 0 0 
60 1 60 0.0999386 0.379983 0 0 -0.185868 -0.0779958 -0.0845894 -0.0234859 0 0 0.15901 0 0 
61 1 61 0.0999295 0.419985 0 0 -0.215588 -0.0871173 -0.0970509 -0.00338509 0 0 -0.244746 0 0 
62 1 62 0.0999199 0.459989 0 0 -0.240171 -0.0835014 -0.103782 -0.0164095 0 0 -0.164757 0 0 
63 1 63 0.099907 0.499995 0 0 -0.269725 -0.0796125 -0.112019 0.00233678 0 0 -0.0851013 0 0 
64 1 64 0.099895 0.540004 0 0 -0.299747 -0.0803931 -0.121905 -0.000116001 0 0 0.0221427 0 0 
65 1 65 0.0998806 0.580016 0 0 -0.319949 -0.0600452 -0.121856 0.0141227 0 0 -0.130174 0 0 
66 1 66 0.0998695 0.62003 0 0 -0.349055 -0.0892717 -0.140588 0.0188535 0 0 -0.564442 0 0 
67 1 67 0.0998616 0.660044 0 0 -0.345592 -0.0487928 -0.126477 0.0289354 0 0 -1.25361 0 0 
68 1 68 0.0998605 0.700061 0 0 -0.391437 -0.0990827 -0.157351 0.0385245 0 0 -1.5039 0 0 
69 1 69 0.0998618 0.740076 0 0 -0.373208 -0.0678217 -0.141456 0.0497975 0 0 -1.09324 0 0 
70 1 70 0.0998663 0.780092 0 0 -0.396502 -0.0990979 -0.158984 0.0726434 0 0 -0.904931 0 0 
71 1 71 0.0998664 0.820106 0 0 -0.396804 -0.0951735 -0.157819 0.0622883 0 0 0.385373 0 0 
72 1 72 0.0998598 0.860123 0 0 -0.403075 -0.0809475 -0.155271 0.0815121 0 0 0.0215096 0 0 
73 1 73 0.0998468 0.900144 0 0 -0.463965 -0.0653159 -0.169799 0.0759245 0 0 0.148317 0 0 
74 1 74 0.0998192 0.940174 0 0 -0.471215 -0.00425286 -0.152515 0.0406755 0 0 -0.0782749 0 0 
75 1 75 0.0997803 0.980207 0 0 -0.450217 -0.0172882 -0.149962 0.0251514 0 0 0.433074 0 0 
76 1 76 0.140001 0.0199968 0 0 -0.0358065 -0.0615496 -0.0312011 0.000633198 0 0 -0.762403 0 0 
77 1 77 0.140001 0.0599903 0 0 -0.0360475 -0.042679 -0.0252236 -0.0125587 0 0 -0.757041 0 0 
78 1 78 0.139995 0.0999868 0 0 -0.0427419 -0.0477821 -0.029008 -0.0207723 0 0 -1.08957 0 0 
79 1 79 0.139987 0.139982 0 0 -0.0556332 -0.0505317 -0.0340181 -0.0233395 0 0 -1.12004 0 0 
80 1 80 0.139978 0.179979 0 0 -0.0744433 -0.0504867 -0.040033 -0.0280964 0 0 -0.80208 0 0 
81 1 81 0.139966 0.219977 0 0 -0.0933253 -0.0492997 -0.0457063 -0.0346712 0 0 -0.484458 0 0 
82 1 82 0.139952 0.259977 0 0 -0.121979 -0.0529442 -0.0560644 -0.0325951 0 0 -0.093437 0 0 
83 1 83 0.139937 0.299978 0 0 -0.149332 -0.0561891 -0.0658789 -0.033592 0 0 0.194229 0 0 
84 1 84 0.139925 0.339982 0 0 -0.17144 -0.0614064 -0.0746445 -0.00998331 0 0 -0.473979 0 0 
85 1 85 0.139915 0.379985 0 0 -0.189219 -0.0653121 -0.0815968 -0.0220149 0 0 -0.504034 0 0 
86 1 86 0.139904 0.41999 0 0 -0.205039 -0.0606183 -0.0851631 -0.00333953 0 0 -0.852707 0 0 
87 1 87 0.139891 0.459996 0 0 -0.237471 -0.0692621 -0.0983437 -0.0202431 0 0 -0.465144 0 0 
88 1 88 0.139876 0.500004 0 0 -0.270571 -0.0651752 -0.107656 -0.00444814 0 0 0.115518 0 0 
89 1 89 0.139864 0.540015 0 0 -0.312009 -0.0753339 -0.124217 -0.00600459 0 0 0.803518 0 0 
90 1 90 0.139855 0.580029 0 0 -0.344986 -0.0656336 -0.131689 0.00447693 0 0 1.79558 0 0 
91 1 91 0.139851 0.620044 0 0 -0.38902 -0.0878205 -0.152957 0.0169287 0 0 2.00772 0 0 
92 1 92 0.139845 0.660061 0 0 -0.403812 -0.0776469 -0.154441 0.0225233 0 0 2.07633 0 0 
93 1 93 0.139838 0.70008 0 0 -0.418116 -0.0759879 -0.158505 0.0282681 0 0 1.70187 0 0 
94 1 94 0.139831 0.7401 0 0 -0.429167 -0.0852608 -0.165033 0.0484168 0 0 1.28373 0 0 
95 1 95 0.139828 0.78012 0 0 -0.420538 -0.0558204 -0.152807 0.0508703 0 0 1.69647 0 0 
96 1 96 0.13982 0.820143 0 0 -0.436034 -0.0767917 -0.164518 0.0558897 0 0 1.73909 0 0 
97 1 97 0.139807 0.860165 0 0 -0.435293 -0.0454264 -0.154205 0.0511759 0 0 1.16594 0 0 
98 1 98 0.139781 0.900195 0 0 -0.445854 -0.0144901 -0.147655 0.0287318 0 0 0.89524 0 0 
99 1 99 0.139749 0.940225 0 0 -0.451478 -0.0268864 -0.153456 0.0313441 0 0 0.176889 0 0 
100 1 100 0.139711 0.980258 0 0 -0.428376 0.0131567 -0.133176 0.00853234 0 0 0.925372 0 0 
101 1 101 0.179998 0.0199963 0 0 -0.0434495 -0.0725593 -0.0371695 -0.00275572 0 0 -0.658839 0 0 
102 1 102 0.179995 0.0599893 0 0 -0.0465618 -0.0499215 -0.030913 -0.0116945 0 0 -1.05983 0 0 
103 1 103 0.179988 0.099985 0 0 -0.0622122 -0.0616805 -0.0397069 -0.0211419 0 0 -1.74007 0 0 
104 1 104 0.179979 0.13998 0 0 -0.0770134 -0.0621051 -0.0445851 -0.0256495 0 0 -1.68415 0 0 
105 1 105 0.179968 0.179978 0 0 -0.087998 -0.0507909 -0.0444765 -0.0277423 0 0 -1.43586 0 0 
106 1 106 0.179953 0.219976 0 0 -0.104828 -0.0480881 -0.0490026 -0.0369084 0 0 -1.06942 0 0 
107 1 107 0.179934 0.259978 0 0 -0.130392 -0.0526775 -0.058673 -0.0379298 0 0 -0.736128 0 0 
108 1 108 0.179916 0.29998 0 0 -0.141192 -0.0413962 -0.0585235 -0.0338311 0 0 -0.681547 0 0 
109 1 109 0.179901 0.339985 0 0 -0.163689 -0.0471425 -0.0675847 -0.015041 0 0 -1.1244 0 0 
110 1 110 0.179887 0.37999 0 0 -0.191878 -0.0484657 -0.0770466 -0.0240768 0 0 -1.29831 0 0 
111 1 111 0.179871 0.419998 0 0 -0.221234 -0.0521717 -0.0876489 -0.00975978 0 0 -1.86741 0 0 
112 1 112 0.179852 0.460007 0 0 -0.254728 -0.0644854 -0.102348 -0.0267202 0 0 -1.60209 0 0 
113 1 113 0.17983 0.500017 0 0 -0.275627 -0.0574345 -0.106795 -0.0125524 0 0 -1.27375 0 0 
114 1 114 0.179807 0.540029 0 0 -0.309938 -0.0664409 -0.120697 -0.0171319 0 0 -0.643165 0 0 
115 1 115 0.179782 0.580044 0 0 -0.331111 -0.0600509 -0.125444 -0.0054684 0 0 -0.250487 0 0 
116 1 116 0.179763 0.62006 0 0 -0.343338 -0.0484455 -0.125646 0.00493919 0 0 -0.718375 0 0 
117 1 117 0.179749 0.660079 0 0 -0.366064 -0.0543535 -0.134838 0.0159971 0 0 -1.17097 0 0 
118 1 118 0.179743 0.700099 0 0 -0.370881 -0.0419036 -0.13239 0.0242141 0 0 -1.25422 0 0 
119 1 119 0.179742 0.740122 0 0 -0.385815 -0.0365879 -0.135476 0.0414527 0 0 -0.92497 0 0 
120 1 120 0.179743 0.780146 0 0 -0.411235 -0.039162 -0.144468 0.0433544 0 0 -0.103245 0 0 
121 1 121 0.179741 0.820173 0 0 -0.409259 -0.004094 -0.13257 0.0446609 0 0 0.530275 0 0 
122 1 122 0.17973 0.860204 0 0 -0.441137 -0.0291679 -0.150856 0.0314075 0 0 0.604711 0 0 
123 1 123 0.179706 0.900234 0 0 -0.436723 0.00802144 -0.137494 0.0123922 0 0 0.684274 0 0 
124 1 124 0.179676 0.940269 0 0 -0.43199 0.00147819 -0.138095 0.0162043 0 0 0.0778337 0 0 
125 1 125 0.179642 0.980301 0 0 -0.41283 -0.00422404 -0.133772 0.00181708 0 0 1.27103 0 0 
126 1 126 0.219999 0.019996 0 0 -0.0500807 -0.0772897 -0.0408131 -0.0105563 0 0 -0.0681898 0 0 
127 1 127 0.219994 0.0599883 0 0 -0.0671876 -0.0671957 -0.0430596 -0.0171761 0 0 -0.499887 0 0 
128 1 128 0.219984 0.0999827 0 0 -0.0829515 -0.0770078 -0.0512654 -0.0260144 0 0 -1.56497 0 0 
129 1 129 0.219972 0.139978 0 0 -0.0902241 -0.0603 -0.0482404 -0.0340087 0 0 -1.62931 0 0 
130 1 130 0.219957 0.179976 0 0 -0.112703 -0.0598537 -0.0553036 -0.03448 0 0 -1.7651 0 0 
131 1 131 0.219939 0.219976 0 0 -0.133013 -0.0524457 -0.0594359 -0.0455008 0 0 -1.44596 0 0 
132 1 132 0.219917 0.259979 0 0 -0.154675 -0.0542837 -0.0669718 -0.0417803 0 0 -0.996834 0 0 
133 1 133 0.219896 0.299983 0 0 -0.166111 -0.0427192 -0.0669364 -0.0333403 0 0 -0.951019 0 0 
134 1 134 0.219878 0.339989 0 0 -0.194952 -0.0498308 -0.078475 -0.0203758 0 0 -1.26627 0 0 
135 1 135 0.219859 0.379997 0 0 -0.216708 -0.0433317 -0.0833688 -0.0251919 0 0 -1.71567 0 0 
136 1 136 0.21984 0.420008 0 0 -0.238156 -0.0430101 -0.0901432 -0.0133171 0 0 -2.3184 0 0 
137 1 137 0.219819 0.460018 0 0 -0.269566 -0.0581095 -0.10507 -0.0274292 0 0 -1.65529 0 0 
138 1 138 0.219795 0.500031 0 0 -0.292011 -0.0574518 -0.112064 -0.0139334 0 0 -1.16453 0 0 
139 1 139 0.219774 0.540043 0 0 -0.326076 -0.0722696 -0.127753 -0.0227368 0 0 0.130658 0 0 
140 1 140 0.219755 0.580058 0 0 -0.358438 -0.0730047 -0.138381 -0.00762219 0 0 1.20329 0 0 
141 1 141 0.219742 0.620075 0 0 -0.38984 -0.0703447 -0.147613 -0.00168203 0 0 1.87489 0 0 
142 1 142 0.21973 0.660095 0 0 -0.413499 -0.0626811 -0.152748 0.0067248 0 0 2.40616 0 0 
143 1 143 0.219718 0.700117 0 0 -0.427572 -0.0607316 -0.156641 0.0202463 0 0 1.96903 0 0 
144 1 144 0.219708 0.740142 0 0 -0.421254 -0.0306019 -0.144934 0.0318734 0 0 2.14856 0 0 
145 1 145 0.219699 0.78017 0 0 -0.434313 -0.0265315 -0.14782 0.0352193 0 0 2.54073 0 0 
146 1 146 0.219687 0.820201 0 0 -0.428592 0.00881856 -0.134628 0.0400318 0 0 2.19963 0 0 
147 1 147 0.21967 0.860236 0 0 -0.428943 0.0149286 -0.13278 0.0161553 0 0 2.20482 0 0 
148 1 148 0.21964 0.900271 0 0 -0.43089 0.0110717 -0.134639 0.00895498 0 0 1.52969 0 0 
149 1 149 0.21961 0.940304 0 0 -0.4171 0.0109933 -0.130258 0.0127567 0 0 0.581322 0 0 
150 1 150 0.219577 0.980338 0 0 -0.411841 0.00475694 -0.13057 -0.00848583 0 0 1.85707 0 0 
151 1 151 0.259995 0.0199955 0 0 -0.050673 -0.0828323 -0.0427833 -0.0203202 0 0 -0.177339 0 0 
152 1 152 0.259984 0.0599871 0 0 -0.0712175 -0.0744622 -0.0466806 -0.0250106 0 0 -0.92172 0 0 
153 1 153 0.259974 0.0999813 0 0 -0.0924583 -0.0817635 -0.0558352 -0.0258523 0 0 -1.8433 0 0 
154 1 154 0.25996 0.139977 0 0 -0.100122 -0.0601622 -0.051366 -0.0400593 0 0 -1.7925 0 0 
155 1 155 0.259941 0.179976 0 0 -0.127669 -0.0643486 -0.0615428 -0.0411638 0 0 -2.07909 0 0 
156 1 156 0.259919 0.219977 0 0 -0.145505 -0.0459713 -0.0613636 -0.0529707 0 0 -1.5877 0 0 
157 1 157 0.259894 0.259982 0 0 -0.159665 -0.0373677 -0.0631436 -0.0427577 0 0 -1.04387 0 0 
158 1 158 0.25987 0.299988 0 0 -0.174592 -0.0374447 -0.0679605 -0.0364855 0 0 -1.19892 0 0 
159 1 159 0.259847 0.339997 0 0 -0.204059 -0.0347504 -0.0765526 -0.0274303 0 0 -1.44458 0 0 
160 1 160 0.259824 0.380008 0 0 -0.23626 -0.0389365 -0.08823 -0.0253259 0 0 -1.88437 0 0 
161 1 161 0.259801 0.420021 0 0 -0.261726 -0.0386186 -0.0962993 -0.0186431 0 0 -2.56755 0 0 
162 1 162 0.259774 0.460034 0 0 -0.290473 -0.0579293 -0.111727 -0.0311183 0 0 -2.26811 0 0 
163 1 163 0.259745 0.500048 0 0 -0.304291 -0.0587247 -0.116421 -0.0209652 0 0 -2.15391 0 0 
164 1 164 0.259714 0.540061 0 0 -0.32503 -0.0707929 -0.126948 -0.0305653 0 0 -0.960832 0 0 
165 1 165 0.259682 0.580076 0 0 -0.329638 -0.0572004 -0.124062 -0.0147116 0 0 -0.49406 0 0 
166 1 166 0.259654 0.620092 0 0 -0.339039 -0.0463122 -0.123582 -0.00671608 0 0 -0.592036 0 0 
167 1 167 0.259634 0.660113 0 0 -0.338585 -0.0217541 -0.115551 0.00855745 0 0 -0.428011 0 0 
168 1 168 0.259623 0.700136 0 0 -0.346427 -0.00657151 -0.113193 0.0194625 0 0 -0.400989 0 0 
169 1 169 0.259617 0.740163 0 0 -0.371869 0.00717026 -0.116949 0.0302905 0 0 0.313771 0 0 
170 1 170 0.259612 0.780194 0 0 -0.39364 0.0187637 -0.120215 0.0309346 0 0 1.16315 0 0 
171 1 171 0.259604 0.820229 0 0 -0.412021 0.0323877 -0.121738 0.0369917 0 0 1.32052 0 0 
172 1 172 0.25959 0.860266 0 0 -0.432159 0.0285006 -0.129455 0.0132406 0 0 1.79452 0 0 
173 1 173 0.259565 0.900303 0 0 -0.418826 0.0271512 -0.125603 0.00564512 0 0 1.51193 0 0 
174 1 174 0.25954 0.940338 0 0 -0.408561 0.0101225 -0.127794 0.0126344 0 0 0.787086 0 0 
175 1 175 0.25951 0.98037 0 0 -0.401984 0.0067368 -0.126766 -0.0129002 0 0 2.05732 0 0 
176 1 176 0.299994 0.0199947 0 0 -0.0649049 -0.0966429 -0.051776 -0.0302239 0 0 -0.226258 0 0 
177 1 177 0.299981 0.0599856 0 0 -0.08842 -0.0843982 -0.0553856 -0.0322054 0 0 -0.844821 0 0 
178 1 178 0.299967 0.09998 0 0 -0.104965 -0.0824932 -0.0600794 -0.0298087 0 0 -1.723 0 0 
179 1 179 0.299948 0.139976 0 0 -0.121057 -0.0675882 -0.0604594 -0.0483159 0 0 -1.81636 0 0 
180 1 180 0.299925 0.179976 0 0 -0.14942 -0.0662007 -0.0691127 -0.0458201 0 0 -1.79877 0 0 
181 1 181 0.299899 0.219979 0 0 -0.16211 -0.0390159 -0.0644594 -0.0556699 0 0 -1.1882 0 0 
182 1 182 0.29987 0.259987 0 0 -0.181164 -0.0331555 -0.0686889 -0.0432336 0 0 -0.782318 0 0 
183 1 183 0.299843 0.299995 0 0 -0.210603 -0.0420429 -0.0809844 -0.042558 0 0 -0.839836 0 0 
184 1 184 0.299816 0.340007 0 0 -0.235622 -0.0282592 -0.0845903 -0.036514 0 0 -0.808681 0 0 
185 1 185 0.299789 0.38002 0 0 -0.266498 -0.0382855 -0.0977172 -0.0291521 0 0 -1.26332 0 0 
186 1 186 0.299761 0.420035 0 0 -0.29436 -0.0431384 -0.10822 -0.0250173 0 0 -1.99015 0 0 
187 1 187 0.299733 0.460049 0 0 -0.324068 -0.0632352 -0.124214 -0.0289662 0 0 -1.66728 0 0 
188 1 188 0.299704 0.500064 0 0 -0.339648 -0.0718167 -0.131976 -0.019476 0 0 -1.31549 0 0 
189 1 189 0.299678 0.540078 0 0 -0.358052 -0.0821369 -0.141194 -0.0268764 0 0 0.0802642 0 0 
190 1 190 0.299653 0.580093 0 0 -0.373251 -0.0769016 -0.144391 -0.0120034 0 0 1.09409 0 0 
191 1 191 0.299633 0.620111 0 0 -0.400178 -0.0672489 -0.149937 -0.0101683 0 0 2.34476 0 0 
192 1 192 0.299614 0.660132 0 0 -0.427086 -0.0604152 -0.156384 0.0111464 0 0 3.03954 0 0 
193 1 193 0.299598 0.700157 0 0 -0.4317 -0.0371152 -0.150381 0.0173171 0 0 3.26147 0 0 
194 1 194 0.299581 0.740186 0 0 -0.431251 -0.00647495 -0.140396 0.0228843 0 0 3.81327 0 0 
195 1 195 0.299564 0.78022 0 0 -0.439205 0.00802084 -0.138294 0.025609 0 0 3.81085 0 0 
196 1 196 0.299547 0.820257 0 0 -0.431944 0.04014 -0.125646 0.0265197 0 0 3.39533 0 0 
197 1 197 0.299527 0.860295 0 0 -0.426112 0.0324844 -0.126236 0.0105258 0 0 3.24045 0 0 
198 1 198 0.299502 0.900332 0 0 -0.409466 0.0315833 -0.121176 0.00851881 0 0 2.44534 0 0 
199 1 199 0.299476 0.940367 0 0 -0.404657 0.0167555 -0.124409 0.00456167 0 0 1.73984 0 0 
200 1 200 0.299446 0.980399 0 0 -0.398629 0.00547093 -0.126093 -0.0149253 0 0 2.56375 0 0 
201 1 201 0.339989 0.0199946 0 0 -0.0576977 -0.0957152 -0.0491673 -0.0400247 0 0 -0.667457 0 0 
202 1 202 0.33997 0.0599851 0 0 -0.0746821 -0.0813632 -0.0500077 -0.037463 0 0 -1.39302 0 0 
203 1 203 0.339954 0.0999797 0 0 -0.0973362 -0.0722726 -0.0543563 -0.0353281 0 0 -1.94756 0 0 
204 1 204 0.339932 0.139977 0 0 -0.118781 -0.0572277 -0.0564073 -0.0542547 0 0 -1.96675 0 0 
205 1 205 0.339905 0.179979 0 0 -0.142692 -0.0489744 -0.0614309 -0.0499435 0 0 -1.65763 0 0 
206 1 206 0.339873 0.219984 0 0 -0.166277 -0.0284524 -0.0624115 -0.0616226 0 0 -1.13817 0 0 
207 1 207 0.339841 0.259993 0 0 -0.199559 -0.0331983 -0.0746056 -0.0469725 0 0 -0.738706 0 0 
208 1 208 0.33981 0.300004 0 0 -0.225967 -0.0312697 -0.0824573 -0.0478422 0 0 -0.463343 0 0 
209 1 209 0.339777 0.340018 0 0 -0.250353 -0.0206409 -0.0868724 -0.0424521 0 0 -0.465233 0 0 
210 1 210 0.339745 0.380034 0 0 -0.29055 -0.0397342 -0.105898 -0.0378654 0 0 -0.899773 0 0 
211 1 211 0.339713 0.420051 0 0 -0.320288 -0.0443542 -0.116928 -0.0361444 0 0 -1.6247 0 0 
212 1 212 0.339681 0.460067 0 0 -0.334847 -0.0577211 -0.125899 -0.0330344 0 0 -1.73393 0 0 
213 1 213 0.339649 0.500083 0 0 -0.340409 -0.066252 -0.130428 -0.0273034 0 0 -1.61204 0 0 
214 1 214 0.339614 0.540098 0 0 -0.348675 -0.0691248 -0.134001 -0.0331947 0 0 -0.818416 0 0 
215 1 215 0.339577 0.580115 0 0 -0.351241 -0.0616631 -0.132428 -0.0171322 0 0 -0.672346 0 0 
216 1 216 0.339543 0.620133 0 0 -0.343073 -0.0329168 -0.120578 -0.015804 0 0 -0.120368 0 0 
217 1 217 0.339516 0.660156 0 0 -0.340286 -0.0101614 -0.112377 0.0103141 0 0 0.168721 0 0 
218 1 218 0.3395 0.700181 0 0 -0.355744 0.00828054 -0.111419 0.0171194 0 0 0.87094 0 0 
219 1 219 0.339487 0.740212 0 0 -0.375652 0.0260118 -0.112117 0.0249929 0 0 1.8523 0 0 
220 1 220 0.339475 0.780246 0 0 -0.392927 0.0342733 -0.115009 0.0241668 0 0 2.38653 0 0 
221 1 221 0.339462 0.820283 0 0 -0.412373 0.0481536 -0.116793 0.0221162 0 0 2.62579 0 0 
222 1 222 0.339447 0.860321 0 0 -0.423794 0.0332221 -0.125259 0.012607 0 0 2.78078 0 0 
223 1 223 0.339429 0.900358 0 0 -0.40912 0.0307337 -0.121343 0.00616127 0 0 2.71215 0 0 
224 1 224 0.339407 0.940393 0 0 -0.410199 0.0131658 -0.127341 0.00383347 0 0 2.25681 0 0 
225 1 225 0.33938 0.980426 0 0 -0.392219 0.014473 -0.121144 -0.0140253 0 0 2.5646 0 0 
226 1 226 0.379989 0.0199947 0 0 -0.0646373 -0.0970194 -0.0518084 -0.0501496 0 0 -0.661717 0 0 
227 1 227 0.379967 0.0599854 0 0 -0.0932905 -0.0889232 -0.0583981 -0.0433074 0 0 -1.36396 0 0 
228 1 228 0.379945 0.0999806 0 0 -0.115876 -0.0729671 -0.0605251 -0.0418442 0 0 -1.93342 0 0 
229 1 229 0.379917 0.13998 0 0 -0.138406 -0.0551949 -0.0620498 -0.0595362 0 0 -1.96919 0 0 
230 1 230 0.379885 0.179984 0 0 -0.165957 -0.0442743 -0.067387 -0.0575146 0 0 -1.34482 0 0 
231 1 231 0.379848 0.21999 0 0 -0.190543 -0.0330777 -0.0716826 -0.0686347 0 0 -0.846923 0 0 
232 1 232 0.379811 0.260002 0 0 -0.210925 -0.0225828 -0.074852 -0.0513769 0 0 -0.483838 0 0 
233 1 233 0.379776 0.300015 0 0 -0.243248 -0.0244057 -0.0858048 -0.0542546 0 0 0.0483514 0 0 
234 1 234 0.379738 0.340031 0 0 -0.277319 -0.0249802 -0.0969223 -0.0506226 0 0 -0.102026 0 0 
235 1 235 0.379701 0.380047 0 0 -0.31747 -0.0485126 -0.117358 -0.0458128 0 0 -0.377177 0 0 
236 1 236 0.379666 0.420065 0 0 -0.336807 -0.0433101 -0.121896 -0.0409069 0 0 -0.771324 0 0 
237 1 237 0.379633 0.460082 0 0 -0.363357 -0.0651806 -0.137443 -0.0338719 0 0 -0.913072 0 0 
238 1 238 0.379602 0.500099 0 0 -0.383982 -0.0786646 -0.148401 -0.0302793 0 0 -0.626576 0 0 
239 1 239 0.379573 0.540116 0 0 -0.389854 -0.0753055 -0.149206 -0.0322714 0 0 0.270276 0 0 
240 1 240 0.379545 0.580134 0 0 -0.405589 -0.0782569 -0.15521 -0.0205265 0 0 1.14257 0 0 
241 1 241 0.379519 0.620154 0 0 -0.429642 -0.0660608 -0.159024 -0.0204065 0 0 2.68858 0 0 
242 1 242 0.379494 0.660178 0 0 -0.451132 -0.0558773 -0.162654 0.00354555 0 0 3.61606 0 0 
243 1 243 0.379471 0.700206 0 0 -0.457669 -0.0272226 -0.155548 0.00264765 0 0 4.82242 0 0 
244 1 244 0.379447 0.740238 0 0 -0.464148 -0.0135984 -0.153251 0.015496 0 0 5.14403 0 0 
245 1 245 0.379426 0.780272 0 0 -0.45976 0.00428495 -0.146098 0.016015 0 0 4.94139 0 0 
246 1 246 0.379404 0.820309 0 0 -0.450066 0.0225613 -0.137115 0.0145239 0 0 4.63786 0 0 
247 1 247 0.379385 0.860346 0 0 -0.43495 0.0198958 -0.133125 0.0187671 0 0 3.75808 0 0 
248 1 248 0.379365 0.900383 0 0 -0.414725 0.0291748 -0.123649 0.00589177 0 0 3.71701 0 0 
249 1 249 0.379343 0.940417 0 0 -0.418182 0.00850086 -0.131407 0.000793002 0 0 3.26249 0 0 
250 1 250 0.379317 0.98045 0 0 -0.393751 0.0144881 -0.121633 -0.00670502 0 0 2.95735 0 0 
251 1 251 0.419984 0.019995 0 0 -0.0548145 -0.0896239 -0.0462866 -0.0610567 0 0 -0.951751 0 0 
252 1 252 0.419955 0.0599868 0 0 -0.0801701 -0.0735791 -0.0492688 -0.0542787 0 0 -1.99517 0 0 
253 1 253 0.419929 0.0999837 0 0 -0.113396 -0.0600587 -0.0555896 -0.0511546 0 0 -2.24506 0 0 
254 1 254 0.419897 0.139984 0 0 -0.141144 -0.046142 -0.0600257 -0.0655652 0 0 -2.26629 0 0 
255 1 255 0.41986 0.17999 0 0 -0.163135 -0.0275757 -0.0611276 -0.0649745 0 0 -1.74209 0 0 
256 1 256 0.419818 0.219999 0 0 -0.1938 -0.0275747 -0.0709638 -0.0733413 0 0 -1.25338 0 0 
257 1 257 0.419776 0.260012 0 0 -0.221725 -0.0136932 -0.0754678 -0.0600413 0 0 -0.98493 0 0 
258 1 258 0.419736 0.300027 0 0 -0.258316 -0.0240878 -0.0905417 -0.0654146 0 0 -0.356799 0 0 
259 1 259 0.419693 0.340044 0 0 -0.27946 -0.0228111 -0.0969161 -0.0619892 0 0 -0.364977 0 0 
260 1 260 0.419652 0.380061 0 0 -0.311977 -0.0394547 -0.11269 -0.0590236 0 0 -0.152106 0 0 
261 1 261 0.419613 0.42008 0 0 -0.335095 -0.0425805 -0.121114 -0.0515947 0 0 -0.49499 0 0 
262 1 262 0.419577 0.460097 0 0 -0.352108 -0.0569617 -0.131193 -0.0462019 0 0 -0.944531 0 0 
263 1 263 0.419541 0.500116 0 0 -0.361383 -0.056676 -0.134082 -0.0429541 0 0 -1.01163 0 0 
264 1 264 0.419504 0.540135 0 0 -0.360984 -0.0481193 -0.131205 -0.0405051 0 0 -0.951468 0 0 
265 1 265 0.419464 0.580155 0 0 -0.360859 -0.0444058 -0.129973 -0.033999 0 0 -0.636745 0 0 
266 1 266 0.419425 0.620177 0 0 -0.35033 -0.0163804 -0.117601 -0.029771 0 0 0.157956 0 0 
267 1 267 0.419392 0.660202 0 0 -0.354247 -0.000720925 -0.11383 -0.00282681 0 0 0.581336 0 0 
268 1 268 0.419369 0.700231 0 0 -0.368918 0.0226503 -0.111036 -0.00145814 0 0 2.10783 0 0 
269 1 269 0.41935 0.740264 0 0 -0.385008 0.028087 -0.114453 0.0160354 0 0 2.77982 0 0 
270 1 270 0.419335 0.780298 0 0 -0.397634 0.0340169 -0.116606 0.0143943 0 0 3.30373 0 0 
271 1 271 0.419318 0.820334 0 0 -0.420106 0.0254746 -0.126562 0.0126113 0 0 3.71458 0 0 
272 1 272 0.419305 0.86037 0 0 -0.429639 0.0163382 -0.132564 0.0229777 0 0 3.23821 0 0 
273 1 273 0.419291 0.900405 0 0 -0.422452 0.0209658 -0.128769 0.0048004 0 0 3.89225 0 0 
274 1 274 0.419272 0.940439 0 0 -0.421606 0.00139871 -0.13479 0.00187157 0 0 3.57522 0 0 
275 1 275 0.419252 0.980471 0 0 -0.389128 0.0179307 -0.119044 -0.00153915 0 0 3.08579 0 0 
276 1 276 0.459983 0.0199954 0 0 -0.0671652 -0.0914761 -0.0508427 -0.0728108 0 0 -0.618021 0 0 
277 1 277 0.45995 0.0599879 0 0 -0.102136 -0.0750801 -0.0567942 -0.0674398 0 0 -1.57839 0 0 
278 1 278 0.459916 0.0999866 0 0 -0.127057 -0.0521829 -0.0574454 -0.0647366 0 0 -2.10171 0 0 
279 1 279 0.459877 0.13999 0 0 -0.161128 -0.0440087 -0.0657525 -0.0790689 0 0 -2.4585 0 0 
280 1 280 0.459834 0.179997 0 0 -0.190629 -0.0268373 -0.0697096 -0.0772562 0 0 -2.0464 0 0 
281 1 281 0.459789 0.220008 0 0 -0.219322 -0.0323182 -0.0806721 -0.0838642 0 0 -1.49764 0 0 
282 1 282 0.459742 0.260022 0 0 -0.240781 -0.0186841 -0.0831822 -0.0764692 0 0 -1.32586 0 0 
283 1 283 0.459696 0.300037 0 0 -0.275387 -0.0271898 -0.0970146 -0.0781305 0 0 -0.667517 0 0 
284 1 284 0.459651 0.340055 0 0 -0.293836 -0.0268168 -0.102815 -0.0708459 0 0 -0.486953 0 0 
285 1 285 0.459607 0.380072 0 0 -0.313204 -0.0362329 -0.11205 -0.0707967 0 0 -0.0640753 0 0 
286 1 286 0.459565 0.420091 0 0 -0.331859 -0.042197 -0.119951 -0.0592327 0 0 -0.242379 0 0 
287 1 287 0.459528 0.460109 0 0 -0.354545 -0.0502689 -0.12983 -0.0501803 0 0 -0.222988 0 0 
288 1 288 0.459493 0.500129 0 0 -0.374178 -0.0475412 -0.135261 -0.0438137 0 0 0.109643 0 0 
289 1 289 0.45946 0.54015 0 0 -0.390791 -0.0496266 -0.141261 -0.0366167 0 0 0.272356 0 0 
290 1 290 0.459429 0.580173 0 0 -0.412741 -0.0512231 -0.148822 -0.0345393 0 0 1.24974 0 0 
291 1 291 0.459398 0.620197 0 0 -0.437991 -0.0462983 -0.155354 -0.0300532 0 0 2.92408 0 0 
292 1 292 0.459368 0.660225 0 0 -0.463982 -0.0399117 -0.161651 -0.0131461 0 0 4.28819 0 0 
293 1 293 0.459337 0.700256 0 0 -0.479725 -0.0246123 -0.161793 -0.011525 0 0 5.97849 0 0 
294 1 294 0.459308 0.740289 0 0 -0.484583 -0.0190909 -0.161578 0.00916947 0 0 5.89962 0 0 
295 1 295 0.459284 0.780323 0 0 -0.473962 -0.00392855 -0.1533 0.00613756 0 0 5.79321 0 0 
296 1 296 0.459261 0.820358 0 0 -0.461045 -0.00809829 -0.150489 0.00785148 0 0 5.37049 0 0 
297 1 297 0.459243 0.860392 0 0 -0.443287 0.00154942 -0.141694 0.0190388 0 0 4.03039 0 0 
298 1 298 0.459226 0.900426 0 0 -0.434739 0.00815405 -0.136827 -9.67637e-05 0 0 4.41132 0 0 
299 1 299 0.459206 0.940459 0 0 -0.432798 -0.0094092 -0.141852 0.000564102 0 0 4.13076 0 0 
300 1 300 0.459188 0.980491 0 0 -0.406285 0.00872662 -0.127506 0.0032998 0 0 3.81655 0 0 
301 1 301 0.499978 0.0199959 0 0 -0.0547248 -0.0806607 -0.0433869 -0.0869795 0 0 -0.617091 0 0 
302 1 302 0.499936 0.0599893 0 0 -0.0923675 -0.0656735 -0.0506463 -0.0841651 0 0 -1.80149 0 0 
303 1 303 0.499896 0.0999895 0 0 -0.139313 -0.0451393 -0.0591179 -0.0815888 0 0 -2.31984 0 0 
304 1 304 0.499852 0.139994 0 0 -0.178434 -0.0425772 -0.0708445 -0.0927317 0 0 -2.64713 0 0 
305 1 305 0.499804 0.180004 0 0 -0.191235 -0.0183322 -0.0671759 -0.0919621 0 0 -2.65129 0 0 
306 1 306 0.499754 0.220015 0 0 -0.218175 -0.0272269 -0.078671 -0.09711 0 0 -2.30592 0 0 
307 1 307 0.499703 0.26003 0 0 -0.236479 -0.0127739 -0.0799046 -0.0938871 0 0 -2.00828 0 0 
308 1 308 0.499653 0.300046 0 0 -0.260902 -0.0153571 -0.0885679 -0.0904259 0 0 -1.36646 0 0 
309 1 309 0.499605 0.340065 0 0 -0.274555 -0.0131656 -0.0922442 -0.0808361 0 0 -0.991994 0 0 
310 1 310 0.499558 0.380083 0 0 -0.296828 -0.0256506 -0.103395 -0.08223 0 0 -0.280635 0 0 
311 1 311 0.499513 0.420102 0 0 -0.311672 -0.0281883 -0.108973 -0.0672357 0 0 -0.109569 0 0 
312 1 312 0.499472 0.460122 0 0 -0.322056 -0.0204544 -0.10983 -0.0619894 0 0 -0.0581101 0 0 
313 1 313 0.499431 0.500145 0 0 -0.336291 -0.015419 -0.112786 -0.0545363 0 0 -0.49774 0 0 
314 1 314 0.49939 0.540168 0 0 -0.34319 -0.00904673 -0.112952 -0.0450193 0 0 -0.787408 0 0 
315 1 315 0.499347 0.580194 0 0 -0.345089 0.00242249 -0.109877 -0.0430468 0 0 -0.27273 0 0 
316 1 316 0.499302 0.620221 0 0 -0.337454 0.0139657 -0.103723 -0.0307814 0 0 0.402179 0 0 
317 1 317 0.499264 0.66025 0 0 -0.337306 0.0294854 -0.0986947 -0.0178794 0 0 1.38285 0 0 
318 1 318 0.499233 0.700281 0 0 -0.352162 0.0399466 -0.100106 -0.00970045 0 0 2.99512 0 0 
319 1 319 0.49921 0.740315 0 0 -0.375599 0.028111 -0.111425 0.011428 0 0 3.38284 0 0 
320 1 320 0.499193 0.780348 0 0 -0.392962 0.0276973 -0.117135 0.00998473 0 0 3.91523 0 0 
321 1 321 0.499177 0.820381 0 0 -0.411839 0.00118425 -0.131705 0.0137556 0 0 4.05942 0 0 
322 1 322 0.499164 0.860413 0 0 -0.425539 -0.00270086 -0.137356 0.0170966 0 0 3.49712 0 0 
323 1 323 0.499151 0.900445 0 0 -0.430237 0.000164319 -0.137944 0.00212902 0 0 4.0107 0 0 
324 1 324 0.499135 0.940477 0 0 -0.425382 -0.0111859 -0.140035 0.00306361 0 0 3.98231 0 0 
325 1 325 0.499121 0.980508 0 0 -0.409577 0.00863188 -0.12859 0.00458214 0 0 4.17054 0 0 
326 1 326 0.539977 0.0199958 0 0 -0.0671789 -0.0851473 -0.0488187 -0.102716 0 0 -0.0939859 0 0 