ITEM: TIMESTEP
0
ITEM: NUMBER OF ATOMS
7127
ITEM: BOX BOUNDS sm sm sm
0 4
0 2
0 0
ITEM: ATOMS id type tag x y z vx 
0 1 0 0 0 0 0 
1 1 1 0 0.04 0 0 
2 1 2 0 0.08 0 0 
3 1 3 0 0.12 0 0 
4 1 4 0 0.16 0 0 
5 1 5 0 0.2 0 0 
6 1 6 0 0.24 0 0 
7 1 7 0 0.28 0 0 
8 1 8 0 0.32 0 0 
9 1 9 0 0.36 0 0 
10 1 10 0 0.4 0 0 
11 1 11 0 0.44 0 0 
12 1 12 0 0.48 0 0 
13 1 13 0 0.52 0 0 
14 1 14 0 0.56 0 0 
15 1 15 0 0.6 0 0 
16 1 16 0 0.64 0 0 
17 1 17 0 0.68 0 0 
18 1 18 0 0.72 0 0 
19 1 19 0 0.76 0 0 
20 1 20 0 0.8 0 0 
21 1 21 0 0.84 0 0 
22 1 22 0 0.88 0 0 
23 1 23 0 0.92 0 0 
24 1 24 0 0.96 0 0 
25 1 25 0 1 0 0 
26 1 26 0.04 0 0 0 
27 1 27 0.0399868 0.039987 0 -0.0355308 
28 1 28 0.0399829 0.07998 0 -0.11112 
29 1 29 0.0399789 0.119975 0 -0.295578 
30 1 30 0.0399758 0.159971 0 -0.559764 
31 1 31 0.0399707 0.199969 0 -0.721028 
32 1 32 0.0399679 0.239969 0 -0.729392 
33 1 33 0.0399655 0.27997 0 -0.639774 
34 1 34 0.0399646 0.319972 0 -0.504936 
35 1 35 0.0399635 0.359973 0 -0.286753 
36 1 36 0.039962 0.399973 0 -0.0865596 
37 1 37 0.0399614 0.439973 0 0.067744 
38 1 38 0.0399591 0.479973 0 0.107087 
39 1 39 0.0399578 0.519972 0 0.0483981 
40 1 40 0.0399562 0.559974 0 0.0302645 
41 1 41 0.0399546 0.599977 0 -0.017301 
42 1 42 0.0399537 0.639981 0 -0.0695889 
43 1 43 0.0399537 0.679987 0 -0.0637004 
44 1 44 0.0399527 0.719995 0 -0.0727605 
45 1 45 0.039952 0.760003 0 -0.143932 
46 1 46 0.0399518 0.800013 0 -0.284811 
47 1 47 0.0399541 0.840021 0 -0.225996 
48 1 48 0.0399512 0.880034 0 -0.379497 
49 1 49 0.0399547 0.920041 0 -0.406407 
50 1 50 0.0399514 0.960054 0 -0.226582 
51 1 51 0.0399059 1.0001 0 -0.31293 
52 1 52 0.08 0 0 0 
53 1 53 0.0799815 0.0399831 0 -0.183344 
54 1 54 0.0799705 0.0799689 0 -0.387636 
55 1 55 0.0799603 0.11996 0 -0.603757 
56 1 56 0.0799519 0.159953 0 -0.824124 
57 1 57 0.0799411 0.199948 0 -0.955155 
58 1 58 0.0799358 0.239946 0 -1.04673 
59 1 59 0.0799294 0.279945 0 -1.06979 
60 1 60 0.0799277 0.319945 0 -0.978631 
61 1 61 0.0799249 0.359946 0 -0.683651 
62 1 62 0.0799244 0.399946 0 -0.385743 
63 1 63 0.0799219 0.439946 0 -0.113938 
64 1 64 0.0799196 0.479945 0 0.0365519 
65 1 65 0.0799141 0.519947 0 0.0609341 
66 1 66 0.0799118 0.559951 0 0.112793 
67 1 67 0.0799062 0.599958 0 0.0925529 
68 1 68 0.0799058 0.639966 0 0.0792652 
69 1 69 0.0799005 0.679979 0 0.0571853 
70 1 70 0.0799005 0.719991 0 -0.0796277 
71 1 71 0.079898 0.760008 0 -0.187504 
72 1 72 0.0798982 0.800024 0 -0.375195 
73 1 73 0.0798993 0.840043 0 -0.442441 
74 1 74 0.0798986 0.880062 0 -0.618003 
75 1 75 0.0799036 0.920081 0 -0.618818 
76 1 76 0.0798841 0.960112 0 -0.487091 
77 1 77 0.0798577 1.00013 0 -0.619983 
78 1 78 0.12 0 0 0 
79 1 79 0.119976 0.0399798 0 -0.300879 
80 1 80 0.119958 0.0799634 0 -0.58779 
81 1 81 0.119942 0.11995 0 -0.783596 
82 1 82 0.119929 0.15994 0 -0.930186 
83 1 83 0.119914 0.199933 0 -1.0634 
84 1 84 0.119904 0.239929 0 -1.25953 
85 1 85 0.119894 0.279925 0 -1.3588 
86 1 86 0.11989 0.319923 0 -1.29077 
87 1 87 0.119887 0.359921 0 -1.00589 
88 1 88 0.119884 0.39992 0 -0.694909 
89 1 89 0.119882 0.43992 0 -0.361952 
90 1 90 0.119876 0.479922 0 -0.130992 
91 1 91 0.11987 0.519925 0 0.00199864 
92 1 92 0.119863 0.559933 0 0.16884 
93 1 93 0.119857 0.599943 0 0.208849 
94 1 94 0.119854 0.639957 0 0.255316 
95 1 95 0.119851 0.679972 0 0.220701 
96 1 96 0.119847 0.719993 0 -0.0395276 
97 1 97 0.119844 0.760012 0 -0.220349 
98 1 98 0.119841 0.800037 0 -0.386752 
99 1 99 0.119842 0.840059 0 -0.54203 
100 1 100 0.119844 0.880084 0 -0.733275 
101 1 101 0.119841 0.920113 0 -0.740844 
102 1 102 0.11983 0.960138 0 -0.788577 
103 1 103 0.119814 1.00016 0 -0.999517 
104 1 104 0.16 0 0 0 
105 1 105 0.15997 0.0399772 0 -0.36168 
106 1 106 0.159947 0.0799575 0 -0.668798 
107 1 107 0.159924 0.119942 0 -0.853156 
108 1 108 0.159905 0.15993 0 -0.977915 
109 1 109 0.159886 0.199921 0 -1.11523 
110 1 110 0.159872 0.239914 0 -1.34994 
111 1 111 0.15986 0.279909 0 -1.50828 
112 1 112 0.159853 0.319905 0 -1.50352 
113 1 113 0.159848 0.359902 0 -1.28612 
114 1 114 0.159843 0.3999 0 -0.967235 
115 1 115 0.159838 0.4399 0 -0.602506 
116 1 116 0.159831 0.479903 0 -0.334609 
117 1 117 0.159822 0.519909 0 -0.119315 
118 1 118 0.159814 0.559918 0 0.136728 
119 1 119 0.159805 0.599931 0 0.255618 
120 1 120 0.159801 0.639947 0 0.328514 
121 1 121 0.159792 0.679967 0 0.303456 
122 1 122 0.159788 0.719989 0 0.0852636 
123 1 123 0.159783 0.760015 0 -0.109994 
124 1 124 0.159782 0.80004 0 -0.292753 
125 1 125 0.159781 0.84007 0 -0.446203 
126 1 126 0.159783 0.880098 0 -0.620217 
127 1 127 0.159783 0.920126 0 -0.733529 
128 1 128 0.159777 0.960156 0 -1.03728 
129 1 129 0.159772 1.00018 0 -1.35577 
130 1 130 0.2 0 0 0 
131 1 131 0.199965 0.0399739 0 -0.441021 
132 1 132 0.199935 0.079952 0 -0.730532 
133 1 133 0.199906 0.119935 0 -0.885471 
134 1 134 0.199883 0.159921 0 -0.962733 
135 1 135 0.199858 0.199911 0 -1.04306 
136 1 136 0.199841 0.239902 0 -1.26932 
137 1 137 0.199825 0.279896 0 -1.5205 
138 1 138 0.199816 0.31989 0 -1.63752 
139 1 139 0.199807 0.359886 0 -1.53271 
140 1 140 0.199801 0.399884 0 -1.28292 
141 1 141 0.199792 0.439885 0 -0.949804 
142 1 142 0.199783 0.479889 0 -0.667817 
143 1 143 0.199772 0.519896 0 -0.371581 
144 1 144 0.199761 0.559907 0 -0.058535 
145 1 145 0.19975 0.599921 0 0.169365 
146 1 146 0.199744 0.63994 0 0.337065 
147 1 147 0.199738 0.679961 0 0.347625 
148 1 148 0.199732 0.719986 0 0.214554 
149 1 149 0.199725 0.760013 0 0.0906235 
150 1 150 0.199722 0.800042 0 -0.0585993 
151 1 151 0.199721 0.84007 0 -0.249217 
152 1 152 0.199724 0.880101 0 -0.458482 
153 1 153 0.199724 0.92013 0 -0.706593 
154 1 154 0.199724 0.960156 0 -1.23985 
155 1 155 0.199731 1.00018 0 -1.63267 
156 1 156 0.24 0 0 0 
157 1 157 0.239957 0.0399702 0 -0.507991 
158 1 158 0.239921 0.0799465 0 -0.785756 
159 1 159 0.239888 0.119928 0 -0.929552 
160 1 160 0.239859 0.159913 0 -0.962339 
161 1 161 0.239832 0.199901 0 -1.02923 
162 1 162 0.239811 0.239893 0 -1.27967 
163 1 163 0.239791 0.279884 0 -1.56252 
164 1 164 0.239778 0.319878 0 -1.71485 
165 1 165 0.239766 0.359874 0 -1.70972 
166 1 166 0.239756 0.399873 0 -1.5946 
167 1 167 0.239744 0.439874 0 -1.32533 
168 1 168 0.239732 0.47988 0 -1.0406 
169 1 169 0.239719 0.519887 0 -0.680914 
170 1 170 0.239706 0.559898 0 -0.289921 
171 1 171 0.239696 0.599912 0 0.0237051 
172 1 172 0.239686 0.63993 0 0.25589 
173 1 173 0.239674 0.679951 0 0.3377 
174 1 174 0.239666 0.719976 0 0.289608 
175 1 175 0.239661 0.760003 0 0.218854 
176 1 176 0.239659 0.800031 0 0.187725 
177 1 177 0.239657 0.840061 0 -0.00319171 
178 1 178 0.239662 0.880091 0 -0.33512 
179 1 179 0.239667 0.920119 0 -0.69169 
180 1 180 0.239673 0.960146 0 -1.34692 
181 1 181 0.239684 1.00017 0 -1.78276 
182 1 182 0.28 0 0 0 
183 1 183 0.27995 0.0399672 0 -0.482534 
184 1 184 0.279907 0.0799418 0 -0.774412 
185 1 185 0.279869 0.119922 0 -0.975992 
186 1 186 0.279837 0.159906 0 -1.0126 
187 1 187 0.279806 0.199893 0 -1.09562 
188 1 188 0.279781 0.239883 0 -1.32765 
189 1 189 0.279758 0.279874 0 -1.60043 
190 1 190 0.279742 0.319868 0 -1.82712 
191 1 191 0.279724 0.359864 0 -1.92578 
192 1 192 0.279711 0.399863 0 -1.8884 
193 1 193 0.279695 0.439866 0 -1.63371 
194 1 194 0.279681 0.479871 0 -1.31311 
195 1 195 0.279666 0.51988 0 -0.914118 
196 1 196 0.279652 0.55989 0 -0.463512 
197 1 197 0.279637 0.599904 0 -0.0849181 
198 1 198 0.279627 0.639921 0 0.141762 
199 1 199 0.279618 0.679941 0 0.298929 
200 1 200 0.27961 0.719965 0 0.38247 
201 1 201 0.2796 0.75999 0 0.309797 
202 1 202 0.279598 0.800018 0 0.31713 
203 1 203 0.279596 0.840045 0 0.163804 
204 1 204 0.279603 0.880074 0 -0.249237 
205 1 205 0.279609 0.920101 0 -0.666216 
206 1 206 0.279619 0.960128 0 -1.36215 
207 1 207 0.279637 1.00015 0 -1.81992 
208 1 208 0.32 0 0 0 
209 1 209 0.319941 0.0399655 0 -0.427801 
210 1 210 0.319892 0.0799383 0 -0.746376 
211 1 211 0.319851 0.119917 0 -1.01558 
212 1 212 0.319814 0.1599 0 -1.10315 
213 1 213 0.31978 0.199887 0 -1.24244 
214 1 214 0.319753 0.239876 0 -1.45091 
215 1 215 0.319726 0.279866 0 -1.70344 
216 1 216 0.319706 0.31986 0 -1.96734 
217 1 217 0.319683 0.359856 0 -2.07939 
218 1 218 0.319664 0.399856 0 -2.08266 
219 1 219 0.319645 0.439859 0 -1.87986 
220 1 220 0.319629 0.479866 0 -1.51323 
221 1 221 0.319611 0.519873 0 -1.04655 
222 1 222 0.319597 0.559883 0 -0.549853 
223 1 223 0.319583 0.599894 0 -0.112783 
224 1 224 0.319568 0.639909 0 0.102792 
225 1 225 0.319553 0.679926 0 0.233494 
226 1 226 0.319541 0.719948 0 0.345781 
227 1 227 0.319534 0.759971 0 0.286359 
228 1 228 0.319534 0.799996 0 0.2884 
229 1 229 0.319531 0.840022 0 0.121605 
230 1 230 0.31954 0.88005 0 -0.307619 
231 1 231 0.31955 0.920078 0 -0.698015 
232 1 232 0.319564 0.960104 0 -1.34142 
233 1 233 0.319584 1.00013 0 -1.77203 
234 1 234 0.36 0 0 0 
235 1 235 0.359934 0.0399644 0 -0.356654 
236 1 236 0.359878 0.0799355 0 -0.717811 
237 1 237 0.359831 0.119913 0 -1.06965 
238 1 238 0.359791 0.159895 0 -1.25282 
239 1 239 0.359755 0.199881 0 -1.46004 
240 1 240 0.359724 0.239869 0 -1.65169 
241 1 241 0.359694 0.279859 0 -1.86012 
242 1 242 0.359668 0.319852 0 -2.09085 
243 1 243 0.359642 0.359848 0 -2.18482 
244 1 244 0.35962 0.399848 0 -2.16386 
245 1 245 0.359596 0.439851 0 -1.96249 
246 1 246 0.359578 0.479857 0 -1.55266 
247 1 247 0.359559 0.519865 0 -1.03253 
248 1 248 0.359543 0.559874 0 -0.535032 
249 1 249 0.359524 0.599885 0 -0.0923214 
250 1 250 0.35951 0.639899 0 0.102213 
251 1 251 0.359499 0.679915 0 0.193154 
252 1 252 0.359488 0.719933 0 0.251715 
253 1 253 0.359476 0.759952 0 0.161594 
254 1 254 0.359473 0.799975 0 0.141951 
255 1 255 0.359472 0.839998 0 -0.0321291 
256 1 256 0.35948 0.880025 0 -0.421408 
257 1 257 0.35949 0.920052 0 -0.760616 
258 1 258 0.359507 0.96008 0 -1.2728 
259 1 259 0.359531 1.00011 0 -1.59964 
260 1 260 0.4 0 0 0 
261 1 261 0.399925 0.0399642 0 -0.305827 
262 1 262 0.399864 0.079934 0 -0.715999 
263 1 263 0.399812 0.11991 0 -1.1403 
264 1 264 0.399767 0.15989 0 -1.43165 
265 1 265 0.399728 0.199875 0 -1.69445 
266 1 266 0.399694 0.239862 0 -1.84406 
267 1 267 0.399661 0.279852 0 -1.98352 
268 1 268 0.399631 0.319845 0 -2.13949 
269 1 269 0.3996 0.359842 0 -2.22714 
270 1 270 0.399573 0.399841 0 -2.19081 
271 1 271 0.399547 0.439844 0 -1.96445 
272 1 272 0.399527 0.479849 0 -1.52588 
273 1 273 0.399506 0.519856 0 -0.970241 
274 1 274 0.399491 0.559864 0 -0.455351 
275 1 275 0.399474 0.599873 0 0.00117889 
276 1 276 0.399456 0.639884 0 0.152274 
277 1 277 0.399436 0.679896 0 0.156141 
278 1 278 0.399421 0.719913 0 0.137812 
279 1 279 0.399412 0.759929 0 -0.00194626 
280 1 280 0.399411 0.79995 0 -0.134306 
281 1 281 0.399408 0.839972 0 -0.345546 
282 1 282 0.399415 0.879997 0 -0.650162 
283 1 283 0.399427 0.920026 0 -0.941562 
284 1 284 0.399448 0.960053 0 -1.27596 
285 1 285 0.399473 1.00008 0 -1.44064 
286 1 286 0.44 0 0 0 
287 1 287 0.43992 0.0399633 0 -0.298838 
288 1 288 0.43985 0.0799318 0 -0.751408 
289 1 289 0.439792 0.119905 0 -1.2289 
290 1 290 0.439743 0.159885 0 -1.60861 
291 1 291 0.439701 0.199868 0 -1.89661 
292 1 292 0.439663 0.239855 0 -2.01727 
293 1 293 0.439626 0.279845 0 -2.13186 
294 1 294 0.439592 0.319837 0 -2.19495 
295 1 295 0.439556 0.359833 0 -2.18951 
296 1 296 0.439527 0.399832 0 -2.10498 
297 1 297 0.439498 0.439833 0 -1.86375 
298 1 298 0.439477 0.479837 0 -1.41686 
299 1 299 0.439457 0.519843 0 -0.87108 
300 1 300 0.43944 0.559851 0 -0.371255 
301 1 301 0.439418 0.59986 0 0.0437017 
302 1 302 0.439402 0.639871 0 0.16811 
303 1 303 0.439387 0.679882 0 0.125548 
304 1 304 0.439374 0.719895 0 0.00639073 
305 1 305 0.439359 0.75991 0 -0.165058 
306 1 306 0.439351 0.799927 0 -0.391665 
307 1 307 0.439351 0.839948 0 -0.610096 
308 1 308 0.439356 0.879972 0 -0.792322 
309 1 309 0.439365 0.919999 0 -1.0245 
310 1 310 0.439389 0.960027 0 -1.10813 
311 1 311 0.439417 1.00006 0 -1.04845 
312 1 312 0.48 0 0 0 
313 1 313 0.479914 0.0399629 0 -0.294868 
314 1 314 0.479839 0.0799297 0 -0.781816 
315 1 315 0.479775 0.119902 0 -1.30556 
316 1 316 0.479719 0.159879 0 -1.75216 
317 1 317 0.479672 0.199861 0 -2.0682 
318 1 318 0.47963 0.239847 0 -2.18292 
319 1 319 0.479588 0.279836 0 -2.23039 
320 1 320 0.479551 0.319828 0 -2.20376 
321 1 321 0.479512 0.359823 0 -2.14917 
322 1 322 0.47948 0.399821 0 -1.99006 
323 1 323 0.47945 0.439821 0 -1.70975 
324 1 324 0.479428 0.479824 0 -1.27305 
325 1 325 0.479405 0.519829 0 -0.76869 
326 1 326 0.479389 0.559836 0 -0.294298 
327 1 327 0.479371 0.599843 0 0.0959977 
328 1 328 0.479351 0.639852 0 0.226745 
329 1 329 0.479325 0.67986 0 0.160301 
330 1 330 0.479308 0.719872 0 -0.0545354 
331 1 331 0.479297 0.759885 0 -0.242364 
332 1 332 0.47929 0.799903 0 -0.541102 
333 1 333 0.479287 0.839922 0 -0.787984 
334 1 334 0.47929 0.879945 0 -0.895608 
335 1 335 0.479302 0.919972 0 -1.08563 
336 1 336 0.479326 0.959999 0 -0.978846 
337 1 337 0.479352 1.00003 0 -0.754922 
338 1 338 0.52 0 0 0 
339 1 339 0.519912 0.0399617 0 -0.298484 
340 1 340 0.51983 0.0799267 0 -0.797257 
341 1 341 0.519758 0.119897 0 -1.32702 
342 1 342 0.519697 0.159872 0 -1.79788 
343 1 343 0.519645 0.199852 0 -2.12762 
344 1 344 0.519596 0.239837 0 -2.26605 
345 1 345 0.519552 0.279825 0 -2.28182 
346 1 346 0.519509 0.319816 0 -2.17874 
347 1 347 0.519468 0.359809 0 -2.07971 
348 1 348 0.519435 0.399805 0 -1.852 
349 1 349 0.519402 0.439804 0 -1.55281 
350 1 350 0.519378 0.479806 0 -1.17423 
351 1 351 0.519356 0.51981 0 -0.730709 
352 1 352 0.519338 0.559817 0 -0.288862 
353 1 353 0.519315 0.599825 0 0.0637989 
354 1 354 0.519299 0.639834 0 0.222385 
355 1 355 0.519281 0.679843 0 0.18483 
356 1 356 0.519265 0.719854 0 -0.0536628 
357 1 357 0.519246 0.759865 0 -0.225559 
358 1 358 0.519234 0.799881 0 -0.537461 
359 1 359 0.519233 0.839899 0 -0.739901 
360 1 360 0.519233 0.879921 0 -0.734649 
361 1 361 0.519242 0.919946 0 -0.811182 
362 1 362 0.519265 0.959974 0 -0.583341 
363 1 363 0.519291 1 0 -0.307555 
364 1 364 0.56 0 0 0 
365 1 365 0.559908 0.0399605 0 -0.220131 
366 1 366 0.559822 0.0799234 0 -0.695197 
367 1 367 0.559745 0.119891 0 -1.23219 
368 1 368 0.559677 0.159864 0 -1.71567 
369 1 369 0.559619 0.199842 0 -2.04189 
370 1 370 0.559565 0.239825 0 -2.23488 
371 1 371 0.559515 0.279811 0 -2.33664 
372 1 372 0.559469 0.319801 0 -2.23436 
373 1 373 0.559425 0.359794 0 -2.05795 
374 1 374 0.559388 0.399789 0 -1.76822 
375 1 375 0.559355 0.439786 0 -1.47505 
376 1 376 0.55933 0.479788 0 -1.14122 
377 1 377 0.559304 0.519791 0 -0.76165 
378 1 378 0.559287 0.559797 0 -0.35262 
379 1 379 0.559268 0.599803 0 -0.0320807 
380 1 380 0.559248 0.63981 0 0.15771 
381 1 381 0.559219 0.679817 0 0.206926 
382 1 382 0.559199 0.719827 0 0.0324202 
383 1 383 0.559185 0.759839 0 -0.089011 
384 1 384 0.559175 0.799855 0 -0.349299 
385 1 385 0.559169 0.839874 0 -0.467285 
386 1 386 0.559169 0.879896 0 -0.403367 
387 1 387 0.559179 0.919921 0 -0.420067 
388 1 388 0.559198 0.959949 0 -0.256353 
389 1 389 0.559219 0.999981 0 -0.0901527 
390 1 390 0.6 0 0 0 
391 1 391 0.599907 0.0399587 0 -0.170562 
392 1 392 0.599816 0.0799198 0 -0.56798 
393 1 393 0.599733 0.119885 0 -1.02608 
394 1 394 0.599661 0.159855 0 -1.48069 
395 1 395 0.599596 0.19983 0 -1.83985 
396 1 396 0.599537 0.239811 0 -2.10958 
397 1 397 0.599482 0.279796 0 -2.27453 
398 1 398 0.599432 0.319784 0 -2.23498 
399 1 399 0.599386 0.359774 0 -2.08238 
400 1 400 0.599347 0.399768 0 -1.77751 
401 1 401 0.599311 0.439764 0 -1.49259 
402 1 402 0.599283 0.479764 0 -1.19135 
403 1 403 0.599257 0.519766 0 -0.91137 
404 1 404 0.599236 0.559773 0 -0.571463 
405 1 405 0.599211 0.59978 0 -0.233484 
406 1 406 0.599194 0.639788 0 0.0421533 
407 1 407 0.599175 0.679796 0 0.210964 
408 1 408 0.599156 0.719805 0 0.162504 
409 1 409 0.599134 0.759817 0 0.133116 
410 1 410 0.59912 0.799833 0 0.000720193 
411 1 411 0.599115 0.839852 0 0.0126866 
412 1 412 0.599114 0.879875 0 0.106251 
413 1 413 0.59912 0.9199 0 0.172555 
414 1 414 0.599135 0.959929 0 0.229684 
415 1 415 0.599155 0.999961 0 0.215339 
416 1 416 0.64 0 0 0 
417 1 417 0.639905 0.0399577 0 -0.0972157 
418 1 418 0.639813 0.0799172 0 -0.407929 
419 1 419 0.639726 0.11988 0 -0.78919 
420 1 420 0.639647 0.159847 0 -1.17386 
421 1 421 0.639577 0.19982 0 -1.54102 
422 1 422 0.639513 0.239798 0 -1.91923 
423 1 423 0.639453 0.27978 0 -2.18013 
424 1 424 0.639398 0.319766 0 -2.23135 
425 1 425 0.639349 0.359755 0 -2.15849 
426 1 426 0.639306 0.399747 0 -1.90616 
427 1 427 0.639267 0.439742 0 -1.6654 
428 1 428 0.639236 0.479741 0 -1.41024 
429 1 429 0.639205 0.519743 0 -1.20724 
430 1 430 0.639184 0.559748 0 -0.891867 
431 1 431 0.639162 0.599752 0 -0.497404 
432 1 432 0.63914 0.639758 0 -0.12922 
433 1 433 0.63911 0.679765 0 0.152599 
434 1 434 0.639088 0.719775 0 0.264483 
435 1 435 0.639071 0.759789 0 0.345131 
436 1 436 0.639059 0.799807 0 0.354162 
437 1 437 0.639049 0.839828 0 0.483992 
438 1 438 0.639048 0.879854 0 0.57381 
439 1 439 0.639055 0.91988 0 0.706064 
440 1 440 0.639063 0.95991 0 0.604732 
441 1 441 0.639078 0.999943 0 0.374028 
442 1 442 0.68 0 0 0 
443 1 443 0.679905 0.039957 0 -0.029005 
444 1 444 0.679809 0.0799154 0 -0.238342 
445 1 445 0.679719 0.119876 0 -0.538492 
446 1 446 0.679638 0.159841 0 -0.868875 
447 1 447 0.679561 0.19981 0 -1.24826 
448 1 448 0.679491 0.239785 0 -1.71472 
449 1 449 0.679427 0.279764 0 -2.10673 
450 1 450 0.679369 0.319748 0 -2.29426 
451 1 451 0.679317 0.359734 0 -2.29699 
452 1 452 0.679271 0.399724 0 -2.09366 
453 1 453 0.679229 0.439718 0 -1.88634 
454 1 454 0.679193 0.479715 0 -1.64741 
455 1 455 0.679159 0.519715 0 -1.45577 
456 1 456 0.679132 0.559719 0 -1.14965 
457 1 457 0.679102 0.599725 0 -0.76876 
458 1 458 0.679082 0.639733 0 -0.35203 
459 1 459 0.679062 0.679742 0 0.0656866 
460 1 460 0.679042 0.719753 0 0.362918 
461 1 461 0.679015 0.759767 0 0.52854 
462 1 462 0.678999 0.799786 0 0.655709 
463 1 463 0.678991 0.839809 0 0.897634 
464 1 464 0.678989 0.879835 0 0.979949 
465 1 465 0.678991 0.919863 0 1.14093 
466 1 466 0.678997 0.959895 0 0.892969 
467 1 467 0.679012 0.999928 0 0.495638 
468 1 468 0.72 0 0 0 
469 1 469 0.719903 0.0399572 0 -0.102279 
470 1 470 0.719808 0.0799154 0 -0.248331 
471 1 471 0.719716 0.119875 0 -0.419207 
472 1 472 0.719629 0.159837 0 -0.657769 
473 1 473 0.719548 0.199804 0 -1.02993 
474 1 474 0.719474 0.239776 0 -1.53071 
475 1 475 0.719404 0.279751 0 -2.0054 
476 1 476 0.719342 0.319733 0 -2.32596 
477 1 477 0.719287 0.359717 0 -2.42785 
478 1 478 0.719236 0.399705 0 -2.29548 
479 1 479 0.719189 0.439697 0 -2.14635 
480 1 480 0.719147 0.479693 0 -1.9338 
481 1 481 0.719107 0.519691 0 -1.72282 
482 1 482 0.719077 0.559694 0 -1.39689 
483 1 483 0.719051 0.599697 0 -0.975019 
484 1 484 0.719024 0.639703 0 -0.476965 
485 1 485 0.71899 0.679711 0 -0.0125524 
486 1 486 0.718965 0.719724 0 0.360719 
487 1 487 0.718944 0.75974 0 0.584915 
488 1 488 0.718931 0.799761 0 0.791726 
489 1 489 0.718916 0.839786 0 1.08601 
490 1 490 0.718914 0.879815 0 1.17518 
491 1 491 0.718919 0.919846 0 1.40493 
492 1 492 0.718922 0.959878 0 1.14999 
493 1 493 0.718933 0.999912 0 0.712823 
494 1 494 0.76 0 0 0 
495 1 495 0.759903 0.0399576 0 -0.208948 
496 1 496 0.759806 0.0799158 0 -0.319079 
497 1 497 0.759712 0.119874 0 -0.407785 
498 1 498 0.759622 0.159835 0 -0.583026 
499 1 499 0.759536 0.199799 0 -0.937836 
500 1 500 0.759457 0.239768 0 -1.44718 
501 1 501 0.759384 0.279741 0 -1.94286 
502 1 502 0.759318 0.319719 0 -2.31955 
503 1 503 0.759257 0.359699 0 -2.51639 
504 1 504 0.759204 0.399686 0 -2.46061 
505 1 505 0.759151 0.439675 0 -2.29351 
506 1 506 0.759105 0.479669 0 -2.02924 
507 1 507 0.759062 0.519666 0 -1.77534 
508 1 508 0.759024 0.559668 0 -1.45806 
509 1 509 0.758988 0.599673 0 -1.07733 
510 1 510 0.758961 0.639681 0 -0.597938 
511 1 511 0.758939 0.679692 0 -0.159487 
512 1 512 0.758914 0.719706 0 0.242706 
513 1 513 0.758882 0.759723 0 0.524666 
514 1 514 0.758863 0.799744 0 0.801306 
515 1 515 0.758851 0.839769 0 1.10183 
516 1 516 0.758848 0.879797 0 1.15141 
517 1 517 0.758847 0.919829 0 1.3651 
518 1 518 0.758851 0.959863 0 1.15296 
519 1 519 0.758865 0.999898 0 0.77957 
520 1 520 0.8 0 0 0 
521 1 521 0.799901 0.0399585 0 -0.423661 
522 1 522 0.799804 0.0799165 0 -0.529485 
523 1 523 0.799709 0.119875 0 -0.518911 
524 1 524 0.799615 0.159834 0 -0.616597 
525 1 525 0.799525 0.199797 0 -0.912093 
526 1 526 0.799442 0.239763 0 -1.36205 
527 1 527 0.799364 0.279733 0 -1.84366 
528 1 528 0.799294 0.319708 0 -2.21932 
529 1 529 0.799229 0.359687 0 -2.4441 
530 1 530 0.799169 0.399672 0 -2.46589 
531 1 531 0.799111 0.43966 0 -2.31949 
532 1 532 0.799058 0.479652 0 -2.03403 
533 1 533 0.799008 0.519648 0 -1.72468 
534 1 534 0.798968 0.559648 0 -1.38537 
535 1 535 0.798935 0.59965 0 -1.06858 
536 1 536 0.7989 0.639657 0 -0.678177 
537 1 537 0.79886 0.679667 0 -0.310177 
538 1 538 0.79883 0.719682 0 0.0838915 
539 1 539 0.798804 0.759701 0 0.360284 
540 1 540 0.798787 0.799723 0 0.608787 
541 1 541 0.798769 0.839749 0 0.900878 
542 1 542 0.798765 0.879778 0 1.03671 
543 1 543 0.798768 0.919811 0 1.30627 
544 1 544 0.798771 0.959845 0 1.20473 
545 1 545 0.798783 0.999881 0 0.966195 
546 1 546 0.84 0 0 0 
547 1 547 0.839901 0.039958 0 -0.693675 
548 1 548 0.839801 0.0799163 0 -0.815981 
549 1 549 0.839704 0.119874 0 -0.674735 
550 1 550 0.839609 0.159833 0 -0.673093 
551 1 551 0.839515 0.199793 0 -0.892872 
552 1 552 0.839427 0.239758 0 -1.23636 
553 1 553 0.839345 0.279725 0 -1.66228 
554 1 554 0.83927 0.319698 0 -2.02814 
555 1 555 0.839199 0.359675 0 -2.27691 
556 1 556 0.839135 0.399657 0 -2.32179 
557 1 557 0.839073 0.439643 0 -2.1481 
558 1 558 0.839015 0.479635 0 -1.84265 
559 1 559 0.838964 0.51963 0 -1.50096 
560 1 560 0.838915 0.559629 0 -1.18829 
561 1 561 0.83887 0.599634 0 -0.989395 
562 1 562 0.838835 0.639643 0 -0.737158 
563 1 563 0.838807 0.679656 0 -0.475788 
564 1 564 0.838777 0.719672 0 -0.126935 
565 1 565 0.83874 0.75969 0 0.171037 
566 1 566 0.838716 0.799711 0 0.460641 
567 1 567 0.8387 0.839735 0 0.739067 
568 1 568 0.838693 0.879763 0 0.869288 
569 1 569 0.838688 0.919794 0 1.07581 
570 1 570 0.838694 0.959829 0 1.05832 
571 1 571 0.838708 0.999866 0 0.977327 
572 1 572 0.88 0 0 0 
573 1 573 0.879897 0.0399575 0 -0.904103 
574 1 574 0.879799 0.0799152 0 -1.02906 
575 1 575 0.8797 0.119872 0 -0.821499 
576 1 576 0.8796 0.159831 0 -0.782955 
577 1 577 0.879504 0.19979 0 -0.916382 
578 1 578 0.879412 0.239753 0 -1.0948 
579 1 579 0.879325 0.279719 0 -1.37006 
580 1 580 0.879246 0.31969 0 -1.64219 
581 1 581 0.879169 0.359666 0 -1.89308 
582 1 582 0.879098 0.399649 0 -1.98039 
583 1 583 0.879031 0.439635 0 -1.81657 
584 1 584 0.878968 0.479626 0 -1.51415 
585 1 585 0.878909 0.51962 0 -1.17966 
586 1 586 0.878859 0.559618 0 -0.939047 
587 1 587 0.878818 0.599621 0 -0.852708 
588 1 588 0.878774 0.639627 0 -0.726616 
589 1 589 0.878726 0.679639 0 -0.581432 
590 1 590 0.878688 0.719656 0 -0.311824 
591 1 591 0.87866 0.759674 0 -0.00678986 
592 1 592 0.878637 0.799695 0 0.290667 
593 1 593 0.878613 0.839719 0 0.499215 
594 1 594 0.878606 0.879746 0 0.631129 
595 1 595 0.878604 0.919777 0 0.829744 
596 1 596 0.878609 0.959812 0 0.93446 
597 1 597 0.878619 0.99985 0 1.01318 
598 1 598 0.92 0 0 0 
599 1 599 0.919897 0.0399558 0 -1.02445 
600 1 600 0.919794 0.0799131 0 -1.19462 
601 1 601 0.919694 0.11987 0 -0.949131 
602 1 602 0.919594 0.159829 0 -0.819525 
603 1 603 0.919494 0.199787 0 -0.836703 
604 1 604 0.919398 0.239748 0 -0.860212 
605 1 605 0.919307 0.279713 0 -1.00334 
606 1 606 0.919221 0.319682 0 -1.19966 
607 1 607 0.919138 0.359658 0 -1.44827 
608 1 608 0.919063 0.399639 0 -1.59085 
609 1 609 0.918991 0.439625 0 -1.48446 
610 1 610 0.918925 0.479616 0 -1.20792 
611 1 611 0.918866 0.51961 0 -0.882344 
612 1 612 0.918809 0.559609 0 -0.710088 
613 1 613 0.918754 0.599614 0 -0.753618 
614 1 614 0.918709 0.639624 0 -0.784962 
615 1 615 0.918675 0.679637 0 -0.713178 
616 1 616 0.918638 0.719653 0 -0.46085 
617 1 617 0.918597 0.75967 0 -0.116284 
618 1 618 0.918567 0.799689 0 0.23317 
619 1 619 0.918547 0.839709 0 0.429761 
620 1 620 0.918534 0.879734 0 0.572013 
621 1 621 0.918522 0.919764 0 0.694024 
622 1 622 0.918526 0.959799 0 0.781835 
623 1 623 0.918536 0.999838 0 0.925169 
624 1 624 0.96 0 0 0 
625 1 625 0.959892 0.0399548 0 -0.967587 
626 1 626 0.95979 0.079912 0 -1.16721 
627 1 627 0.959689 0.119869 0 -0.973532 
628 1 628 0.959586 0.159827 0 -0.833597 
629 1 629 0.959485 0.199785 0 -0.773768 
630 1 630 0.959386 0.239746 0 -0.662494 
631 1 631 0.959289 0.27971 0 -0.692051 
632 1 632 0.959198 0.319679 0 -0.809778 
633 1 633 0.95911 0.359655 0 -1.0016 
634 1 634 0.959026 0.399636 0 -1.15189 
635 1 635 0.958949 0.439622 0 -1.12528 
636 1 636 0.958879 0.479613 0 -0.944334 
637 1 637 0.958813 0.519608 0 -0.727227 
638 1 638 0.958755 0.559607 0 -0.647969 
639 1 639 0.958705 0.599609 0 -0.723133 
640 1 640 0.958651 0.639615 0 -0.827364 
641 1 641 0.958596 0.679626 0 -0.775912 
642 1 642 0.958551 0.719642 0 -0.485646 
643 1 643 0.958519 0.759658 0 -0.106858 
644 1 644 0.95849 0.799676 0 0.230612 
645 1 645 0.95846 0.839697 0 0.355819 
646 1 646 0.958445 0.879723 0 0.453565 
647 1 647 0.958436 0.919752 0 0.508991 
648 1 648 0.958435 0.959788 0 0.603673 
649 1 649 0.958438 0.999829 0 0.792653 
650 1 650 1 0 0 0 
651 1 651 0.999891 0.0399537 0 -0.712521 
652 1 652 0.999784 0.0799115 0 -0.975162 
653 1 653 0.999681 0.119869 0 -0.99481 
654 1 654 0.999579 0.159829 0 -0.913224 
655 1 655 0.999477 0.199787 0 -0.762728 
656 1 656 0.999375 0.239747 0 -0.49792 
657 1 657 0.999276 0.27971 0 -0.364374 
658 1 658 0.999177 0.319678 0 -0.399678 
659 1 659 0.999082 0.359652 0 -0.608097 
660 1 660 0.998994 0.399632 0 -0.851584 
661 1 661 0.998912 0.439618 0 -0.973707 
662 1 662 0.998838 0.479609 0 -0.890081 
663 1 663 0.998772 0.519603 0 -0.759196 
664 1 664 0.998707 0.559602 0 -0.797902 
665 1 665 0.998642 0.599607 0 -0.915444 
666 1 666 0.998587 0.639617 0 -1.05233 
667 1 667 0.998547 0.679629 0 -1.00165 
668 1 668 0.998503 0.719643 0 -0.692637 
669 1 669 0.998458 0.759658 0 -0.267922 
670 1 670 0.998422 0.799675 0 0.155282 
671 1 671 0.998396 0.839694 0 0.334696 
672 1 672 0.998374 0.879719 0 0.40307 
673 1 673 0.998352 0.919747 0 0.347708 
674 1 674 0.998346 0.959784 0 0.360371 
675 1 675 0.998345 0.999827 0 0.514629 
676 1 676 1.04 0 0 0 
677 1 677 1.03989 0.0399549 0 -0.307793 
678 1 678 1.03978 0.0799131 0 -0.623499 
679 1 679 1.03968 0.119872 0 -0.879759 
680 1 680 1.03957 0.159832 0 -0.887425 
681 1 681 1.03947 0.199791 0 -0.760582 
682 1 682 1.03937 0.239752 0 -0.48595 
683 1 683 1.03926 0.279714 0 -0.287014 
684 1 684 1.03916 0.319682 0 -0.278503 
685 1 685 1.03906 0.359655 0 -0.446119 
686 1 686 1.03896 0.399635 0 -0.691277 
687 1 687 1.03888 0.43962 0 -0.953072 
688 1 688 1.0388 0.47961 0 -1.05178 
689 1 689 1.03872 0.519604 0 -1.09727 
690 1 690 1.03865 0.559602 0 -1.26435 
691 1 691 1.03859 0.599604 0 -1.36452 
692 1 692 1.03853 0.639609 0 -1.45576 
693 1 693 1.03847 0.679619 0 -1.32906 
694 1 694 1.03842 0.719634 0 -0.891527 
695 1 695 1.03838 0.75965 0 -0.379834 
696 1 696 1.03834 0.799669 0 0.0308521 
697 1 697 1.03831 0.83969 0 0.207478 
698 1 698 1.03828 0.879717 0 0.291734 
699 1 699 1.03826 0.919747 0 0.19436 
700 1 700 1.03825 0.959785 0 0.110011 
701 1 701 1.03824 0.99983 0 0.178728 
702 1 702 1.08 0 0 0 
703 1 703 1.07989 0.0399559 0 0.1799 
704 1 704 1.07977 0.0799153 0 -0.207143 
705 1 705 1.07967 0.119875 0 -0.803777 
706 1 706 1.07956 0.159836 0 -1.02371 
707 1 707 1.07946 0.199797 0 -0.970882 
708 1 708 1.07936 0.239757 0 -0.673981 
709 1 709 1.07925 0.279719 0 -0.374004 
710 1 710 1.07914 0.319686 0 -0.263826 
711 1 711 1.07904 0.359657 0 -0.370452 
712 1 712 1.07894 0.399634 0 -0.643281 
713 1 713 1.07884 0.439618 0 -1.04242 
714 1 714 1.07876 0.479606 0 -1.31 
715 1 715 1.07868 0.5196 0 -1.50418 
716 1 716 1.07861 0.559598 0 -1.77533 
717 1 717 1.07853 0.599603 0 -1.87555 
718 1 718 1.07846 0.639613 0 -1.89103 
719 1 719 1.07842 0.679624 0 -1.67142 
720 1 720 1.07837 0.719639 0 -1.17598 
721 1 721 1.07832 0.759655 0 -0.64769 
722 1 722 1.07827 0.799676 0 -0.249999 
723 1 723 1.07824 0.839697 0 -0.0309245 
724 1 724 1.07821 0.879725 0 0.0622027 
725 1 725 1.07818 0.919757 0 -0.109244 
726 1 726 1.07816 0.959796 0 -0.301302 
727 1 727 1.07814 0.999842 0 -0.325101 
728 1 728 1.12 0 0 0 
729 1 729 1.11988 0.0399584 0 0.572 
730 1 730 1.11977 0.079918 0 0.164053 
731 1 731 1.11966 0.119878 0 -0.717447 
732 1 732 1.11955 0.15984 0 -1.1691 
733 1 733 1.11945 0.199801 0 -1.21402 
734 1 734 1.11935 0.239762 0 -0.946318 
735 1 735 1.11924 0.279725 0 -0.625249 
736 1 736 1.11913 0.319692 0 -0.491326 
737 1 737 1.11902 0.359663 0 -0.564633 
738 1 738 1.11891 0.399639 0 -0.793053 
739 1 739 1.11881 0.439621 0 -1.21169 
740 1 740 1.11872 0.479608 0 -1.59026 
741 1 741 1.11863 0.519601 0 -1.92044 
742 1 742 1.11855 0.559599 0 -2.26288 
743 1 743 1.11848 0.5996 0 -2.3212 
744 1 744 1.1184 0.639605 0 -2.24714 
745 1 745 1.11833 0.679616 0 -1.99063 
746 1 746 1.11827 0.719634 0 -1.46834 
747 1 747 1.11823 0.759653 0 -0.90349 
748 1 748 1.11819 0.799677 0 -0.549108 
749 1 749 1.11815 0.839704 0 -0.327451 
750 1 750 1.11811 0.879737 0 -0.203813 
751 1 751 1.11808 0.919771 0 -0.377064 
752 1 752 1.11805 0.959812 0 -0.585558 
753 1 753 1.11803 0.999859 0 -0.653906 
754 1 754 1.16 0 0 0 
755 1 755 1.15988 0.0399597 0 0.811408 
756 1 756 1.15976 0.0799188 0 0.43063 
757 1 757 1.15965 0.119879 0 -0.628464 
758 1 758 1.15955 0.15984 0 -1.31775 
759 1 759 1.15944 0.199802 0 -1.57388 
760 1 760 1.15934 0.239764 0 -1.47164 
761 1 761 1.15923 0.279727 0 -1.16547 
762 1 762 1.15911 0.319693 0 -0.896223 
763 1 763 1.159 0.359663 0 -0.789961 
764 1 764 1.15889 0.399637 0 -0.903804 
765 1 765 1.15878 0.439618 0 -1.30601 
766 1 766 1.15868 0.479605 0 -1.78187 
767 1 767 1.15859 0.519597 0 -2.22067 
768 1 768 1.1585 0.559595 0 -2.5902 
769 1 769 1.15841 0.5996 0 -2.62096 
770 1 770 1.15833 0.639612 0 -2.40616 
771 1 771 1.15828 0.679626 0 -2.00725 
772 1 772 1.15822 0.719645 0 -1.49305 
773 1 773 1.15816 0.759667 0 -1.0157 