ITEM: TIMESTEP
0
ITEM: NUMBER OF ATOMS
7127
ITEM: BOX BOUNDS sm sm sm
0 4
0 2
0 0
ITEM: ATOMS id type tag x y z vx 
0 1 0 0 0 0 0 
1 1 1 0 0.04 0 0 
2 1 2 0 0.08 0 0 
3 1 3 0 0.12 0 0 
4 1 4 0 0.16 0 0 
5 1 5 0 0.2 0 0 
6 1 6 0 0.24 0 0 
7 1 7 0 0.28 0 0 
8 1 8 0 0.32 0 0 
9 1 9 0 0.36 0 0 
10 1 10 0 0.4 0 0 
11 1 11 0 0.44 0 0 
12 1 12 0 0.48 0 0 
13 1 13 0 0.52 0 0 
14 1 14 0 0.56 0 0 
15 1 15 0 0.6 0 0 
16 1 16 0 0.64 0 0 
17 1 17 0 0.68 0 0 
18 1 18 0 0.72 0 0 
19 1 19 0 0.76 0 0 
20 1 20 0 0.8 0 0 
21 1 21 0 0.84 0 0 
22 1 22 0 0.88 0 0 
23 1 23 0 0.92 0 0 
24 1 24 0 0.96 0 0 
25 1 25 0 1 0 0 
26 1 26 0.04 0 0 0 
27 1 27 0.0399823 0.0399821 0 0.173602 
28 1 28 0.0399777 0.0799749 0 0.266928 
29 1 29 0.0399743 0.119971 0 0.214539 
30 1 30 0.0399732 0.15997 0 0.129473 
31 1 31 0.039972 0.199971 0 0.0589532 
32 1 32 0.0399699 0.239974 0 -0.0445131 
33 1 33 0.0399689 0.279976 0 -0.12969 
34 1 34 0.039965 0.319979 0 -0.165582 
35 1 35 0.0399634 0.359981 0 -0.166565 
36 1 36 0.0399597 0.399982 0 -0.153046 
37 1 37 0.0399598 0.439983 0 -0.163929 
38 1 38 0.0399575 0.479984 0 -0.115538 
39 1 39 0.03996 0.519984 0 -0.0446269 
40 1 40 0.0399604 0.559985 0 0.0491051 
41 1 41 0.0399637 0.599987 0 0.0776023 
42 1 42 0.039965 0.639991 0 0.0817067 
43 1 43 0.0399693 0.679996 0 0.0632002 
44 1 44 0.0399709 0.720001 0 0.131774 
45 1 45 0.0399736 0.760007 0 0.155109 
46 1 46 0.0399753 0.800012 0 0.197612 
47 1 47 0.0399753 0.840018 0 0.14574 
48 1 48 0.039979 0.880023 0 0.178551 
49 1 49 0.0399715 0.920032 0 0.226166 
50 1 50 0.0399751 0.960036 0 0.244308 
51 1 51 0.0399361 1.00007 0 0.436414 
52 1 52 0.08 0 0 0 
53 1 53 0.0799743 0.0399787 0 0.389047 
54 1 54 0.0799602 0.0799637 0 0.436212 
55 1 55 0.0799508 0.119956 0 0.313166 
56 1 56 0.079946 0.159951 0 0.269237 
57 1 57 0.079941 0.199951 0 0.236406 
58 1 58 0.0799379 0.239952 0 0.108533 
59 1 59 0.0799343 0.279954 0 -0.0376532 
60 1 60 0.0799298 0.319956 0 -0.147083 
61 1 61 0.0799255 0.359959 0 -0.231427 
62 1 62 0.0799213 0.399961 0 -0.259092 
63 1 63 0.0799188 0.439964 0 -0.272952 
64 1 64 0.0799189 0.479966 0 -0.164397 
65 1 65 0.0799188 0.51997 0 -0.0367886 
66 1 66 0.079923 0.559972 0 0.0816276 
67 1 67 0.0799231 0.599979 0 0.0979934 
68 1 68 0.0799293 0.639984 0 0.111455 
69 1 69 0.0799289 0.679996 0 0.112706 
70 1 70 0.0799375 0.720001 0 0.225559 
71 1 71 0.0799391 0.760014 0 0.379936 
72 1 72 0.0799467 0.800018 0 0.55625 
73 1 73 0.0799449 0.840031 0 0.630486 
74 1 74 0.079947 0.880039 0 0.509497 
75 1 75 0.079946 0.92005 0 0.428854 
76 1 76 0.0799288 0.960074 0 0.540017 
77 1 77 0.0799152 1.00008 0 0.756294 
78 1 78 0.12 0 0 0 
79 1 79 0.119967 0.0399778 0 0.515699 
80 1 80 0.119946 0.0799616 0 0.549015 
81 1 81 0.119929 0.119949 0 0.464417 
82 1 82 0.11992 0.159942 0 0.569348 
83 1 83 0.119911 0.199938 0 0.60585 
84 1 84 0.119906 0.239936 0 0.449438 
85 1 85 0.1199 0.279936 0 0.20458 
86 1 86 0.119895 0.319937 0 -0.0412664 
87 1 87 0.119889 0.359939 0 -0.226179 
88 1 88 0.119883 0.399942 0 -0.299482 
89 1 89 0.119879 0.439946 0 -0.318402 
90 1 90 0.119879 0.479951 0 -0.21764 
91 1 91 0.119879 0.519957 0 -0.057913 
92 1 92 0.119882 0.559965 0 0.0787667 
93 1 93 0.119882 0.599973 0 0.115631 
94 1 94 0.119886 0.639982 0 0.148424 
95 1 95 0.119892 0.679993 0 0.186 
96 1 96 0.119898 0.720004 0 0.366325 
97 1 97 0.119906 0.760014 0 0.658883 
98 1 98 0.119911 0.800025 0 0.948242 
99 1 99 0.119915 0.840034 0 1.12325 
100 1 100 0.119915 0.880047 0 0.977 
101 1 101 0.119907 0.920064 0 0.706878 
102 1 102 0.119899 0.960073 0 0.796544 
103 1 103 0.119887 1.0001 0 1.05125 
104 1 104 0.16 0 0 0 
105 1 105 0.159961 0.0399781 0 0.561252 
106 1 106 0.159932 0.0799599 0 0.662621 
107 1 107 0.15991 0.119946 0 0.659977 
108 1 108 0.159894 0.159936 0 0.837671 
109 1 109 0.159882 0.199929 0 0.89152 
110 1 110 0.159874 0.239926 0 0.740327 
111 1 111 0.159866 0.279924 0 0.438392 
112 1 112 0.159859 0.319925 0 0.1247 
113 1 113 0.159852 0.359926 0 -0.0726243 
114 1 114 0.159845 0.39993 0 -0.192392 
115 1 115 0.15984 0.439934 0 -0.222313 
116 1 116 0.159839 0.479941 0 -0.133172 
117 1 117 0.159838 0.519949 0 0.0336425 
118 1 118 0.159839 0.559958 0 0.175872 
119 1 119 0.159841 0.599968 0 0.208637 
120 1 120 0.159844 0.639977 0 0.272317 
121 1 121 0.159846 0.679989 0 0.335977 
122 1 122 0.159855 0.719998 0 0.578923 
123 1 123 0.159864 0.760011 0 0.955457 
124 1 124 0.159873 0.80002 0 1.28959 
125 1 125 0.159877 0.840035 0 1.47956 
126 1 126 0.159878 0.880046 0 1.40976 
127 1 127 0.159873 0.920063 0 1.13642 
128 1 128 0.159865 0.960079 0 1.15448 
129 1 129 0.159856 1.00009 0 1.40325 
130 1 130 0.2 0 0 0 
131 1 131 0.199957 0.0399784 0 0.442589 
132 1 132 0.199921 0.079959 0 0.60056 
133 1 133 0.199892 0.119944 0 0.729138 
134 1 134 0.199871 0.159933 0 1.00072 
135 1 135 0.199852 0.199924 0 1.09852 
136 1 136 0.199841 0.23992 0 0.994202 
137 1 137 0.19983 0.279917 0 0.675358 
138 1 138 0.199822 0.319918 0 0.353075 
139 1 139 0.199814 0.359919 0 0.172464 
140 1 140 0.199807 0.399923 0 0.0173493 
141 1 141 0.199802 0.439929 0 -0.0154634 
142 1 142 0.199799 0.479935 0 0.0582996 
143 1 143 0.199798 0.519944 0 0.160638 
144 1 144 0.199798 0.559952 0 0.271344 
145 1 145 0.199796 0.599963 0 0.290733 
146 1 146 0.199799 0.639972 0 0.361627 
147 1 147 0.199805 0.679982 0 0.481234 
148 1 148 0.199816 0.719993 0 0.807452 
149 1 149 0.199824 0.760003 0 1.29473 
150 1 150 0.199834 0.800014 0 1.73857 
151 1 151 0.199838 0.840026 0 1.96564 
152 1 152 0.199839 0.88004 0 1.85292 
153 1 153 0.199834 0.920057 0 1.54959 
154 1 154 0.199829 0.960072 0 1.46767 
155 1 155 0.19983 1.00009 0 1.61559 
156 1 156 0.24 0 0 0 
157 1 157 0.239953 0.0399786 0 0.222995 
158 1 158 0.239911 0.0799585 0 0.399869 
159 1 159 0.239876 0.119942 0 0.658514 
160 1 160 0.239847 0.15993 0 1.02567 
161 1 161 0.239824 0.199921 0 1.15954 
162 1 162 0.239807 0.239916 0 1.10387 
163 1 163 0.239793 0.279914 0 0.814261 
164 1 164 0.239784 0.319914 0 0.528966 
165 1 165 0.239775 0.359917 0 0.378465 
166 1 166 0.239768 0.39992 0 0.260916 
167 1 167 0.239762 0.439926 0 0.272883 
168 1 168 0.239759 0.479932 0 0.303945 
169 1 169 0.239755 0.51994 0 0.318645 
170 1 170 0.239755 0.559948 0 0.39479 
171 1 171 0.239755 0.599956 0 0.445475 
172 1 172 0.239757 0.639965 0 0.552851 
173 1 173 0.239759 0.679972 0 0.732488 
174 1 174 0.239768 0.719981 0 1.11469 
175 1 175 0.239779 0.759991 0 1.61511 
176 1 176 0.23979 0.800001 0 2.0827 
177 1 177 0.239794 0.840016 0 2.36159 
178 1 178 0.239796 0.880029 0 2.25856 
179 1 179 0.239794 0.920048 0 1.93112 
180 1 180 0.239793 0.960063 0 1.76747 
181 1 181 0.239794 1.00008 0 1.83856 
182 1 182 0.28 0 0 0 
183 1 183 0.279951 0.0399787 0 0.0556905 
184 1 184 0.279903 0.0799585 0 0.257282 
185 1 185 0.279861 0.119942 0 0.55429 
186 1 186 0.279825 0.159928 0 0.877596 
187 1 187 0.279795 0.199919 0 0.982116 
188 1 188 0.279774 0.239913 0 0.959377 
189 1 189 0.279756 0.279911 0 0.737048 
190 1 190 0.279745 0.319912 0 0.575954 
191 1 191 0.279734 0.359914 0 0.556736 
192 1 192 0.279729 0.399917 0 0.563529 
193 1 193 0.279721 0.439922 0 0.626576 
194 1 194 0.279718 0.479926 0 0.592982 
195 1 195 0.279715 0.519934 0 0.518834 
196 1 196 0.279714 0.55994 0 0.536847 
197 1 197 0.279711 0.599949 0 0.575144 
198 1 198 0.279714 0.639956 0 0.734435 
199 1 199 0.27972 0.679963 0 1.01389 
200 1 200 0.27973 0.71997 0 1.43078 
201 1 201 0.279736 0.75998 0 1.90386 
202 1 202 0.279746 0.79999 0 2.30924 
203 1 203 0.279752 0.840004 0 2.55732 
204 1 204 0.279753 0.880019 0 2.52326 
205 1 205 0.27975 0.920036 0 2.29075 
206 1 206 0.279753 0.960053 0 2.10843 
207 1 207 0.27976 1.00007 0 2.11765 
208 1 208 0.32 0 0 0 
209 1 209 0.319948 0.0399781 0 -0.00604181 
210 1 210 0.319895 0.0799583 0 0.217449 
211 1 211 0.319847 0.119942 0 0.485993 
212 1 212 0.319804 0.159928 0 0.720933 
213 1 213 0.319769 0.199918 0 0.783371 
214 1 214 0.319741 0.239912 0 0.748915 
215 1 215 0.31972 0.279908 0 0.589146 
216 1 216 0.319707 0.319908 0 0.593758 
217 1 217 0.319695 0.359909 0 0.718327 
218 1 218 0.319689 0.399911 0 0.845709 
219 1 219 0.319681 0.439915 0 0.934519 
220 1 220 0.319676 0.479918 0 0.850771 
221 1 221 0.319671 0.519925 0 0.695143 
222 1 222 0.31967 0.55993 0 0.624346 
223 1 223 0.319671 0.599937 0 0.649969 
224 1 224 0.319673 0.639943 0 0.830737 
225 1 225 0.319674 0.679948 0 1.17404 
226 1 226 0.319681 0.719957 0 1.61477 
227 1 227 0.31969 0.759966 0 2.07328 
228 1 228 0.319699 0.799979 0 2.44567 
229 1 229 0.319702 0.839992 0 2.64333 
230 1 230 0.319705 0.880007 0 2.63808 
231 1 231 0.319706 0.920025 0 2.51419 
232 1 232 0.319711 0.960041 0 2.36097 
233 1 233 0.319717 1.00006 0 2.32861 
234 1 234 0.36 0 0 0 
235 1 235 0.359944 0.0399773 0 0.0173351 
236 1 236 0.359886 0.0799578 0 0.248475 
237 1 237 0.359832 0.119941 0 0.479798 
238 1 238 0.359784 0.159927 0 0.650692 
239 1 239 0.359745 0.199917 0 0.678661 
240 1 240 0.359712 0.239908 0 0.644962 
241 1 241 0.359687 0.279903 0 0.579531 
242 1 242 0.35967 0.3199 0 0.705242 
243 1 243 0.359656 0.359901 0 0.862625 
244 1 244 0.35965 0.3999 0 1.07514 
245 1 245 0.359639 0.439902 0 1.20809 
246 1 246 0.359634 0.479904 0 1.04815 
247 1 247 0.359629 0.519909 0 0.767513 
248 1 248 0.359627 0.559914 0 0.584753 
249 1 249 0.359624 0.599921 0 0.62058 
250 1 250 0.359629 0.639929 0 0.895065 
251 1 251 0.359636 0.679937 0 1.28416 
252 1 252 0.359643 0.719946 0 1.67426 
253 1 253 0.359647 0.759957 0 2.05868 
254 1 254 0.359653 0.799969 0 2.33912 
255 1 255 0.359658 0.839983 0 2.51075 
256 1 256 0.359658 0.879998 0 2.58152 
257 1 257 0.359658 0.920015 0 2.62226 
258 1 258 0.359665 0.960033 0 2.62549 
259 1 259 0.359675 1.00005 0 2.62895 
260 1 260 0.4 0 0 0 
261 1 261 0.399939 0.0399764 0 0.10403 
262 1 262 0.399877 0.0799565 0 0.393148 
263 1 263 0.399819 0.119939 0 0.629136 
264 1 264 0.399766 0.159924 0 0.736365 
265 1 265 0.399723 0.199912 0 0.732325 
266 1 266 0.399686 0.239902 0 0.716319 
267 1 267 0.399657 0.279895 0 0.728041 
268 1 268 0.399637 0.31989 0 0.929017 
269 1 269 0.39962 0.359889 0 1.13079 
270 1 270 0.39961 0.399886 0 1.39898 
271 1 271 0.399598 0.439888 0 1.45303 
272 1 272 0.399591 0.479889 0 1.13861 
273 1 273 0.399582 0.519891 0 0.726551 
274 1 274 0.39958 0.559896 0 0.469963 
275 1 275 0.399583 0.599902 0 0.481408 
276 1 276 0.399588 0.639909 0 0.794519 
277 1 277 0.399587 0.679918 0 1.25616 
278 1 278 0.399592 0.719929 0 1.62596 
279 1 279 0.399598 0.759941 0 1.95791 
280 1 280 0.399603 0.799956 0 2.13203 
281 1 281 0.399605 0.839972 0 2.26624 
282 1 282 0.399608 0.879988 0 2.41461 
283 1 283 0.39961 0.920006 0 2.5875 
284 1 284 0.399616 0.960024 0 2.76331 
285 1 285 0.399623 1.00005 0 2.83687 
286 1 286 0.44 0 0 0 
287 1 287 0.439934 0.0399749 0 0.161327 
288 1 288 0.439866 0.0799538 0 0.522623 
289 1 289 0.439805 0.119936 0 0.818174 
290 1 290 0.43975 0.159919 0 0.92359 
291 1 291 0.439703 0.199905 0 0.948888 
292 1 292 0.439662 0.239892 0 0.985212 
293 1 293 0.439629 0.279883 0 1.06056 
294 1 294 0.439604 0.319876 0 1.28156 
295 1 295 0.439584 0.359872 0 1.4693 
296 1 296 0.439572 0.399869 0 1.68751 
297 1 297 0.439557 0.439868 0 1.57783 
298 1 298 0.439547 0.479868 0 1.18395 
299 1 299 0.439538 0.519869 0 0.70463 
300 1 300 0.439536 0.559873 0 0.364864 
301 1 301 0.439533 0.59988 0 0.368099 
302 1 302 0.439539 0.639889 0 0.670931 
303 1 303 0.439547 0.679901 0 1.14876 
304 1 304 0.439553 0.719913 0 1.52821 
305 1 305 0.439553 0.759928 0 1.82642 
306 1 306 0.439555 0.799945 0 1.91088 
307 1 307 0.439559 0.839961 0 2.01433 
308 1 308 0.439558 0.87998 0 2.20058 
309 1 309 0.439558 0.919998 0 2.4742 
310 1 310 0.439566 0.960019 0 2.83075 
311 1 311 0.439574 1.00004 0 2.9903 
312 1 312 0.48 0 0 0 
313 1 313 0.479927 0.0399733 0 0.188834 
314 1 314 0.479856 0.07995 0 0.602348 
315 1 315 0.479792 0.11993 0 0.964582 
316 1 316 0.479734 0.15991 0 1.13122 
317 1 317 0.479685 0.199894 0 1.24379 
318 1 318 0.47964 0.239878 0 1.34458 
319 1 319 0.479603 0.279868 0 1.46467 
320 1 320 0.479574 0.319858 0 1.66648 
321 1 321 0.479551 0.359853 0 1.77567 
322 1 322 0.479533 0.399849 0 1.87969 
323 1 323 0.479516 0.439847 0 1.65429 
324 1 324 0.479505 0.479845 0 1.2547 
325 1 325 0.479491 0.519847 0 0.723087 
326 1 326 0.479489 0.55985 0 0.337669 
327 1 327 0.479491 0.599855 0 0.385952 
328 1 328 0.479495 0.639863 0 0.707441 
329 1 329 0.479494 0.679875 0 1.16349 
330 1 330 0.479496 0.71989 0 1.47873 
331 1 331 0.4795 0.759908 0 1.69402 
332 1 332 0.4795 0.799927 0 1.67975 
333 1 333 0.479501 0.839948 0 1.75445 
334 1 334 0.479502 0.879969 0 1.96279 
335 1 335 0.479506 0.91999 0 2.29816 
336 1 336 0.47951 0.960012 0 2.79897 
337 1 337 0.479513 1.00004 0 3.03755 
338 1 338 0.52 0 0 0 
339 1 339 0.519922 0.0399713 0 0.248688 
340 1 340 0.519847 0.0799461 0 0.704298 
341 1 341 0.51978 0.119923 0 1.0827 
342 1 342 0.51972 0.159901 0 1.26876 
343 1 343 0.519667 0.199881 0 1.41644 
344 1 344 0.51962 0.239863 0 1.55355 
345 1 345 0.51958 0.279849 0 1.73925 
346 1 346 0.519545 0.319837 0 1.95795 
347 1 347 0.519518 0.35983 0 2.00862 
348 1 348 0.519497 0.399824 0 2.02082 
349 1 349 0.519477 0.43982 0 1.74503 
350 1 350 0.519462 0.479818 0 1.34896 
351 1 351 0.519449 0.519818 0 0.807949 
352 1 352 0.519445 0.55982 0 0.489504 
353 1 353 0.519438 0.599827 0 0.540523 
354 1 354 0.519444 0.639838 0 0.779225 
355 1 355 0.519451 0.679853 0 1.22644 
356 1 356 0.519453 0.71987 0 1.51766 
357 1 357 0.519449 0.75989 0 1.68475 
358 1 358 0.519447 0.799911 0 1.62688 
359 1 359 0.519448 0.839934 0 1.65484 
360 1 360 0.519446 0.879957 0 1.83985 
361 1 361 0.519447 0.91998 0 2.17768 
362 1 362 0.519453 0.960006 0 2.7101 
363 1 363 0.519459 1.00003 0 2.97375 
364 1 364 0.56 0 0 0 
365 1 365 0.559916 0.0399697 0 0.280527 
366 1 366 0.559839 0.0799417 0 0.737136 
367 1 367 0.55977 0.119915 0 1.10871 
368 1 368 0.559708 0.159889 0 1.31029 
369 1 369 0.559652 0.199867 0 1.48342 
370 1 370 0.559602 0.239845 0 1.65944 
371 1 371 0.559557 0.279828 0 1.8837 
372 1 372 0.559519 0.319813 0 2.06459 
373 1 373 0.559488 0.359804 0 2.04396 
374 1 374 0.559462 0.399797 0 1.99681 
375 1 375 0.55944 0.439793 0 1.71635 
376 1 376 0.559423 0.47979 0 1.40577 
377 1 377 0.559404 0.51979 0 1.02078 
378 1 378 0.559398 0.559792 0 0.8549 
379 1 379 0.559396 0.599798 0 0.890264 
380 1 380 0.559397 0.639807 0 1.00898 
381 1 381 0.55939 0.679821 0 1.3534 
382 1 382 0.559388 0.719841 0 1.55307 
383 1 383 0.559387 0.759863 0 1.6657 
384 1 384 0.559383 0.799888 0 1.60534 
385 1 385 0.55938 0.839915 0 1.61044 
386 1 386 0.559381 0.879942 0 1.77386 
387 1 387 0.559386 0.919968 0 2.07538 
388 1 388 0.559389 0.959997 0 2.55181 
389 1 389 0.559392 1.00002 0 2.8069 
390 1 390 0.6 0 0 0 
391 1 391 0.599913 0.0399678 0 0.391558 
392 1 392 0.599833 0.0799368 0 0.817304 
393 1 393 0.599761 0.119907 0 1.11898 
394 1 394 0.599698 0.159878 0 1.28223 
395 1 395 0.59964 0.199852 0 1.42117 
396 1 396 0.599586 0.239827 0 1.60345 
397 1 397 0.599539 0.279807 0 1.84283 
398 1 398 0.599497 0.319789 0 2.00317 
399 1 399 0.599461 0.359777 0 1.95689 
400 1 400 0.599432 0.399768 0 1.87419 
401 1 401 0.599407 0.439762 0 1.64291 
402 1 402 0.599385 0.479759 0 1.49084 
403 1 403 0.599367 0.519758 0 1.30058 
404 1 404 0.599356 0.55976 0 1.21991 
405 1 405 0.599342 0.599767 0 1.18302 
406 1 406 0.599341 0.639779 0 1.21263 
407 1 407 0.599342 0.679796 0 1.46103 
408 1 408 0.599338 0.719817 0 1.58692 
409 1 409 0.599328 0.759841 0 1.68412 
410 1 410 0.599321 0.799866 0 1.66905 
411 1 411 0.599318 0.839895 0 1.66946 
412 1 412 0.599316 0.879924 0 1.81545 
413 1 413 0.599317 0.919954 0 2.03975 
414 1 414 0.599326 0.959986 0 2.35619 
415 1 415 0.599335 1.00001 0 2.55876 
416 1 416 0.64 0 0 0 
417 1 417 0.639909 0.0399656 0 0.520448 
418 1 418 0.639829 0.0799315 0 0.89216 
419 1 419 0.639755 0.119898 0 1.09074 
420 1 420 0.639689 0.159866 0 1.19412 
421 1 421 0.63963 0.199837 0 1.2772 
422 1 422 0.639574 0.239809 0 1.46495 
423 1 423 0.639524 0.279786 0 1.69911 
424 1 424 0.639479 0.319766 0 1.83245 
425 1 425 0.639439 0.359751 0 1.78233 
426 1 426 0.639404 0.399741 0 1.67746 
427 1 427 0.639376 0.439734 0 1.5268 
428 1 428 0.639351 0.47973 0 1.538 
429 1 429 0.639325 0.519729 0 1.52636 
430 1 430 0.63931 0.55973 0 1.53575 
431 1 431 0.6393 0.599736 0 1.48491 
432 1 432 0.639291 0.639746 0 1.40463 
433 1 433 0.639275 0.679762 0 1.43881 
434 1 434 0.639265 0.719783 0 1.49449 
435 1 435 0.639258 0.759809 0 1.63108 
436 1 436 0.639249 0.799838 0 1.67989 
437 1 437 0.63924 0.839869 0 1.68506 
438 1 438 0.639242 0.879902 0 1.83284 
439 1 439 0.639248 0.919935 0 1.97226 
440 1 440 0.639256 0.959969 0 2.10612 
441 1 441 0.639266 1 0 2.26397 
442 1 442 0.68 0 0 0 
443 1 443 0.67991 0.0399629 0 0.579957 
444 1 444 0.679827 0.0799261 0 0.925932 
445 1 445 0.679752 0.11989 0 1.0811 
446 1 446 0.679685 0.159854 0 1.1429 
447 1 447 0.679622 0.199822 0 1.14943 
448 1 448 0.679564 0.239792 0 1.3063 
449 1 449 0.679511 0.279766 0 1.50215 
450 1 450 0.679462 0.319743 0 1.60422 
451 1 451 0.679418 0.359725 0 1.56338 
452 1 452 0.679381 0.399712 0 1.45649 
453 1 453 0.679347 0.439703 0 1.3864 
454 1 454 0.679317 0.479698 0 1.5452 
455 1 455 0.679291 0.519696 0 1.73474 
456 1 456 0.679269 0.559697 0 1.80759 
457 1 457 0.679244 0.599704 0 1.66406 
458 1 458 0.67923 0.639717 0 1.42685 
459 1 459 0.679221 0.679736 0 1.25911 
460 1 460 0.67921 0.719757 0 1.27574 
461 1 461 0.679192 0.759784 0 1.43521 
462 1 462 0.679181 0.799813 0 1.56714 
463 1 463 0.679173 0.839844 0 1.62271 
464 1 464 0.67917 0.879879 0 1.78271 
465 1 465 0.67917 0.919915 0 1.82433 
466 1 466 0.679186 0.959951 0 1.76689 
467 1 467 0.679204 0.999983 0 1.88685 
468 1 468 0.72 0 0 0 
469 1 469 0.719908 0.0399608 0 0.631714 
470 1 470 0.719827 0.0799206 0 0.956266 
471 1 471 0.719751 0.119881 0 1.04836 
472 1 472 0.719681 0.159843 0 1.0494 
473 1 473 0.719616 0.199807 0 0.990351 
474 1 474 0.719556 0.239775 0 1.12088 
475 1 475 0.7195 0.279745 0 1.28496 
476 1 476 0.719448 0.31972 0 1.37016 
477 1 477 0.719399 0.3597 0 1.3382 
478 1 478 0.719356 0.399685 0 1.26152 
479 1 479 0.719318 0.439674 0 1.29956 
480 1 480 0.719284 0.479668 0 1.558 
481 1 481 0.71925 0.519666 0 1.87126 
482 1 482 0.719223 0.559667 0 1.95986 
483 1 483 0.719202 0.599673 0 1.73391 
484 1 484 0.719178 0.639684 0 1.37531 
485 1 485 0.719149 0.679701 0 1.04294 
486 1 486 0.71913 0.719723 0 1.02087 
487 1 487 0.719116 0.759751 0 1.15188 
488 1 488 0.719102 0.799782 0 1.32814 
489 1 489 0.719088 0.839815 0 1.43289 
490 1 490 0.71909 0.879852 0 1.63896 
491 1 491 0.719094 0.919888 0 1.65005 
492 1 492 0.71911 0.959926 0 1.46699 
493 1 493 0.719129 0.999961 0 1.5728 
494 1 494 0.76 0 0 0 
495 1 495 0.759911 0.0399585 0 0.57539 
496 1 496 0.759829 0.0799152 0 0.853599 
497 1 497 0.759752 0.119873 0 0.916415 
498 1 498 0.759681 0.159831 0 0.917564 
499 1 499 0.759612 0.199793 0 0.838975 
500 1 500 0.759548 0.239757 0 0.944221 
501 1 501 0.759489 0.279724 0 1.07309 
502 1 502 0.759433 0.319696 0 1.15845 
503 1 503 0.759379 0.359672 0 1.17099 
504 1 504 0.759332 0.399653 0 1.15305 
505 1 505 0.759288 0.439641 0 1.2865 
506 1 506 0.759248 0.479634 0 1.61582 
507 1 507 0.759214 0.519631 0 2.01446 
508 1 508 0.759179 0.559634 0 2.08195 
509 1 509 0.759142 0.599642 0 1.76851 
510 1 510 0.759112 0.639657 0 1.29531 
511 1 511 0.759092 0.679677 0 0.796577 
512 1 512 0.759072 0.7197 0 0.724373 
513 1 513 0.759046 0.759727 0 0.847701 
514 1 514 0.759031 0.799757 0 1.08556 
515 1 515 0.759018 0.839789 0 1.19687 
516 1 516 0.759014 0.879824 0 1.39131 
517 1 517 0.759011 0.919861 0 1.39722 
518 1 518 0.759033 0.9599 0 1.14602 
519 1 519 0.759058 0.999937 0 1.24404 
520 1 520 0.8 0 0 0 
521 1 521 0.799913 0.039956 0 0.474568 
522 1 522 0.799833 0.0799096 0 0.714908 
523 1 523 0.799756 0.119864 0 0.765389 
524 1 524 0.79968 0.15982 0 0.763837 
525 1 525 0.799609 0.199778 0 0.664155 
526 1 526 0.799542 0.239739 0 0.736557 
527 1 527 0.799478 0.279703 0 0.839362 
528 1 528 0.799418 0.319672 0 0.959035 
529 1 529 0.79936 0.359645 0 1.05518 
530 1 530 0.799305 0.399624 0 1.11377 
531 1 531 0.799257 0.439609 0 1.3396 
532 1 532 0.799212 0.479601 0 1.72847 
533 1 533 0.799168 0.519599 0 2.15869 
534 1 534 0.799128 0.559603 0 2.18745 
535 1 535 0.799095 0.599612 0 1.83538 
536 1 536 0.799056 0.639625 0 1.31329 
537 1 537 0.799014 0.679643 0 0.712138 
538 1 538 0.798985 0.719667 0 0.57432 
539 1 539 0.798965 0.759695 0 0.619572 
540 1 540 0.798949 0.799726 0 0.871827 
541 1 541 0.79893 0.839758 0 1.01783 
542 1 542 0.79893 0.879794 0 1.21347 
543 1 543 0.798932 0.919831 0 1.2334 
544 1 544 0.79895 0.959871 0 0.996258 
545 1 545 0.798971 0.999911 0 1.11949 
546 1 546 0.84 0 0 0 
547 1 547 0.839917 0.039953 0 0.281622 
548 1 548 0.839836 0.0799043 0 0.464694 
549 1 549 0.839758 0.119856 0 0.511579 
550 1 550 0.839682 0.159809 0 0.523756 
551 1 551 0.839607 0.199764 0 0.471584 
552 1 552 0.839535 0.239722 0 0.567218 
553 1 553 0.839468 0.279683 0 0.650041 
554 1 554 0.839402 0.319648 0 0.790176 
555 1 555 0.839339 0.359618 0 0.979777 
556 1 556 0.83928 0.399593 0 1.15127 
557 1 557 0.839224 0.439577 0 1.48067 
558 1 558 0.839173 0.479569 0 1.8954 
559 1 559 0.839129 0.519567 0 2.308 
560 1 560 0.839081 0.559571 0 2.31402 
561 1 561 0.83903 0.599582 0 1.93615 
562 1 562 0.838985 0.6396 0 1.39798 
563 1 563 0.838955 0.679621 0 0.795821 
564 1 564 0.838925 0.719645 0 0.622375 
565 1 565 0.838893 0.759671 0 0.582497 
566 1 566 0.838875 0.799701 0 0.817699 
567 1 567 0.838859 0.839732 0 0.972413 
568 1 568 0.838852 0.879767 0 1.14183 
569 1 569 0.838846 0.919803 0 1.1333 
570 1 570 0.838864 0.959843 0 0.844716 
571 1 571 0.838887 0.999885 0 0.928415 
572 1 572 0.88 0 0 0 
573 1 573 0.879918 0.0399503 0 0.0812241 
574 1 574 0.87984 0.0798992 0 0.198066 
575 1 575 0.879763 0.119848 0 0.258738 
576 1 576 0.879682 0.159799 0 0.318059 
577 1 577 0.879604 0.199752 0 0.328896 
578 1 578 0.879529 0.239707 0 0.431175 
579 1 579 0.879457 0.279666 0 0.515796 
580 1 580 0.879388 0.319629 0 0.716936 
581 1 581 0.87932 0.359597 0 1.00961 
582 1 582 0.879253 0.399572 0 1.27382 
583 1 583 0.879192 0.439554 0 1.68383 
584 1 584 0.879136 0.479545 0 2.11694 
585 1 585 0.87908 0.519542 0 2.45608 
586 1 586 0.879026 0.559547 0 2.44028 
587 1 587 0.87898 0.599557 0 2.12536 
588 1 588 0.878927 0.639571 0 1.65958 
589 1 589 0.878873 0.679589 0 1.09844 
590 1 590 0.878835 0.719613 0 0.86659 
591 1 591 0.878811 0.75964 0 0.744697 
592 1 592 0.87879 0.799671 0 0.910201 
593 1 593 0.878767 0.839703 0 0.985446 
594 1 594 0.878765 0.879739 0 1.08468 
595 1 595 0.878763 0.919775 0 1.0973 
596 1 596 0.878772 0.959817 0 0.867518 
597 1 597 0.878786 0.999862 0 0.944785 
598 1 598 0.92 0 0 0 
599 1 599 0.919921 0.0399473 0 -0.0549259 
600 1 600 0.919842 0.079895 0 -0.0261502 
601 1 601 0.919764 0.119843 0 0.013181 
602 1 602 0.919684 0.159792 0 0.13364 
603 1 603 0.919602 0.199743 0 0.244663 
604 1 604 0.919524 0.239697 0 0.378215 
605 1 605 0.919448 0.279655 0 0.489417 
606 1 606 0.919374 0.319617 0 0.725097 
607 1 607 0.919301 0.359583 0 1.0733 
608 1 608 0.91923 0.399556 0 1.42007 
609 1 609 0.919162 0.439537 0 1.87207 
610 1 610 0.919097 0.479526 0 2.27658 
611 1 611 0.919041 0.519523 0 2.53929 
612 1 612 0.91898 0.559527 0 2.53411 
613 1 613 0.918913 0.599536 0 2.28157 
614 1 614 0.918855 0.639553 0 1.91132 
615 1 615 0.918815 0.679571 0 1.4631 
616 1 616 0.918775 0.719594 0 1.17303 
617 1 617 0.918736 0.759619 0 0.939637 
618 1 618 0.918713 0.799649 0 1.02201 
619 1 619 0.918695 0.839681 0 1.06596 
620 1 620 0.918683 0.879717 0 1.12251 
621 1 621 0.918671 0.919755 0 1.09515 
622 1 622 0.918677 0.959798 0 0.820305 
623 1 623 0.918687 0.999845 0 0.818866 
624 1 624 0.96 0 0 0 
625 1 625 0.95992 0.039946 0 -0.198654 
626 1 626 0.959844 0.0798928 0 -0.254262 
627 1 627 0.959766 0.11984 0 -0.189834 
628 1 628 0.959683 0.159789 0 0.0171735 
629 1 629 0.9596 0.19974 0 0.222615 
630 1 630 0.959519 0.239693 0 0.386226 
631 1 631 0.959439 0.27965 0 0.516088 
632 1 632 0.959361 0.319611 0 0.755921 
633 1 633 0.959284 0.359578 0 1.16079 
634 1 634 0.959206 0.399551 0 1.6011 
635 1 635 0.959133 0.439532 0 2.06015 
636 1 636 0.959064 0.47952 0 2.41524 
637 1 637 0.958994 0.519515 0 2.56919 
638 1 638 0.958926 0.559517 0 2.52265 
639 1 639 0.958866 0.599524 0 2.34807 
640 1 640 0.958801 0.639535 0 2.15132 
641 1 641 0.958733 0.679549 0 1.8604 
642 1 642 0.958683 0.719571 0 1.53046 
643 1 643 0.958651 0.759596 0 1.18833 
644 1 644 0.958623 0.799628 0 1.09847 
645 1 645 0.958597 0.839661 0 1.05135 
646 1 646 0.958588 0.879699 0 1.077 
647 1 647 0.95858 0.919738 0 1.04698 
648 1 648 0.958575 0.959784 0 0.773507 
649 1 649 0.958574 0.999834 0 0.702093 
650 1 650 1 0 0 0 
651 1 651 0.999921 0.0399448 0 -0.198398 
652 1 652 0.999843 0.0798925 0 -0.329648 
653 1 653 0.999764 0.11984 0 -0.320454 
654 1 654 0.999682 0.15979 0 -0.113965 
655 1 655 0.999597 0.199741 0 0.162463 
656 1 656 0.999513 0.239694 0 0.359973 
657 1 657 0.999431 0.279651 0 0.524012 
658 1 658 0.999349 0.319612 0 0.810258 
659 1 659 0.999267 0.359579 0 1.27675 
660 1 660 0.999185 0.399551 0 1.78404 
661 1 661 0.999105 0.439531 0 2.23335 
662 1 662 0.999027 0.479519 0 2.51661 
663 1 663 0.998957 0.519513 0 2.5537 
664 1 664 0.998882 0.559513 0 2.51461 
665 1 665 0.9988 0.599519 0 2.45962 
666 1 666 0.998729 0.639531 0 2.40361 
667 1 667 0.998674 0.679546 0 2.21796 
668 1 668 0.998622 0.719565 0 1.84944 
669 1 669 0.998573 0.759589 0 1.41593 
670 1 670 0.998541 0.79962 0 1.13076 
671 1 671 0.998518 0.839653 0 0.955681 
672 1 672 0.998498 0.879692 0 0.911273 
673 1 673 0.99848 0.919734 0 0.900827 
674 1 674 0.99847 0.95978 0 0.696843 
675 1 675 0.998465 0.999831 0 0.578037 
676 1 676 1.04 0 0 0 
677 1 677 1.03992 0.0399455 0 -0.199006 
678 1 678 1.03984 0.0798936 0 -0.402082 
679 1 679 1.03976 0.119843 0 -0.46171 
680 1 680 1.03968 0.159794 0 -0.276168 
681 1 681 1.03959 0.199745 0 0.0553144 
682 1 682 1.03951 0.239699 0 0.27459 
683 1 683 1.03942 0.279656 0 0.485642 
684 1 684 1.03934 0.319617 0 0.832401 
685 1 685 1.03925 0.359584 0 1.34771 
686 1 686 1.03916 0.399558 0 1.91514 
687 1 687 1.03908 0.439538 0 2.35386 
688 1 688 1.03899 0.479524 0 2.57368 
689 1 689 1.03891 0.519518 0 2.51103 
690 1 690 1.03883 0.559518 0 2.44481 
691 1 691 1.03875 0.599521 0 2.46369 
692 1 692 1.03867 0.639528 0 2.54261 
693 1 693 1.03859 0.67954 0 2.47174 
694 1 694 1.03853 0.719559 0 2.08834 
695 1 695 1.03848 0.759583 0 1.58862 
696 1 696 1.03844 0.799615 0 1.15733 
697 1 697 1.03841 0.83965 0 0.903997 
698 1 698 1.03839 0.879692 0 0.770065 
699 1 699 1.03838 0.919735 0 0.73238 
700 1 700 1.03836 0.959785 0 0.568631 
701 1 701 1.03834 0.999838 0 0.390783 
702 1 702 1.08 0 0 0 
703 1 703 1.07992 0.0399464 0 -0.156027 
704 1 704 1.07984 0.0798953 0 -0.429803 
705 1 705 1.07976 0.119846 0 -0.5637 
706 1 706 1.07967 0.159798 0 -0.446196 
707 1 707 1.07959 0.199749 0 -0.151449 
708 1 708 1.0795 0.239704 0 0.0637594 
709 1 709 1.07941 0.27966 0 0.334745 
710 1 710 1.07932 0.319623 0 0.7434 
711 1 711 1.07923 0.35959 0 1.34784 
712 1 712 1.07913 0.399564 0 2.03744 
713 1 713 1.07904 0.439543 0 2.49516 
714 1 714 1.07895 0.47953 0 2.66838 
715 1 715 1.07887 0.519524 0 2.55477 
716 1 716 1.07878 0.559523 0 2.49322 
717 1 717 1.07868 0.599528 0 2.57608 
718 1 718 1.0786 0.63954 0 2.7761 
719 1 719 1.07853 0.679553 0 2.84604 
720 1 720 1.07846 0.719571 0 2.46736 
721 1 721 1.0784 0.759595 0 1.84796 
722 1 722 1.07836 0.799627 0 1.23006 
723 1 723 1.07833 0.839662 0 0.85121 
724 1 724 1.0783 0.879705 0 0.574006 
725 1 725 1.07827 0.91975 0 0.518027 
726 1 726 1.07825 0.9598 0 0.416773 
727 1 727 1.07823 0.999854 0 0.187111 
728 1 728 1.12 0 0 0 
729 1 729 1.11991 0.0399479 0 -0.0829546 
730 1 730 1.11983 0.0798967 0 -0.42893 
731 1 731 1.11975 0.119847 0 -0.69365 
732 1 732 1.11967 0.1598 0 -0.702239 
733 1 733 1.11958 0.199752 0 -0.452482 
734 1 734 1.11949 0.239708 0 -0.202575 
735 1 735 1.1194 0.279665 0 0.191988 
736 1 736 1.1193 0.319628 0 0.716443 
737 1 737 1.1192 0.359596 0 1.38443 
738 1 738 1.1191 0.399571 0 2.13172 
739 1 739 1.11901 0.439552 0 2.61382 
740 1 740 1.11891 0.479539 0 2.78586 
741 1 741 1.11881 0.519532 0 2.66341 
742 1 742 1.11871 0.559533 0 2.63734 
743 1 743 1.11862 0.599537 0 2.80468 
744 1 744 1.11853 0.639545 0 3.06429 
745 1 745 1.11844 0.679559 0 3.14789 
746 1 746 1.11836 0.719579 0 2.74871 
747 1 747 1.1183 0.759605 0 2.09274 
748 1 748 1.11825 0.799638 0 1.38508 
749 1 749 1.11821 0.839677 0 0.920204 
750 1 750 1.11818 0.879723 0 0.505861 
751 1 751 1.11816 0.919771 0 0.392754 
752 1 752 1.11813 0.959824 0 0.321639 
753 1 753 1.1181 0.99988 0 0.0558491 
754 1 754 1.16 0 0 0 
755 1 755 1.15992 0.0399479 0 -0.0830075 
756 1 756 1.15983 0.0798968 0 -0.463958 
757 1 757 1.15974 0.119847 0 -0.806255 
758 1 758 1.15966 0.159799 0 -0.891735 
759 1 759 1.15957 0.199752 0 -0.640089 
760 1 760 1.15947 0.239708 0 -0.347581 
761 1 761 1.15938 0.279666 0 0.130601 
762 1 762 1.15927 0.319631 0 0.743235 
763 1 763 1.15917 0.3596 0 1.46585 
764 1 764 1.15907 0.399576 0 2.24066 
765 1 765 1.15896 0.439556 0 2.7049 
766 1 766 1.15886 0.479545 0 2.853 
767 1 767 1.15876 0.519539 0 2.78306 
768 1 768 1.15865 0.559541 0 2.83285 
769 1 769 1.15854 0.599549 0 3.03343 
770 1 770 1.15845 0.639565 0 3.31777 
771 1 771 1.15838 0.679582 0 3.45144 
772 1 772 1.1583 0.719603 0 3.1026 
773 1 773 1.15822 0.759631 0 2.47214 
774 1 774 1.15816 0.799666 0 1.69114 
775 1 775 1.15812 0.839705 0 1.06484 
776 1 776 1.15808 0.879751 0 0.482382 
777 1 777 1.15805 0.919801 0 0.302505 
778 1 778 1.15801 0.959856 0 0.224726 
779 1 779 1.15798 0.999913 0 -0.0736169 
780 1 780 1.2 0 0 0 
781 1 781 1.19991 0.0399482 0 -0.117698 
782 1 782 1.19983 0.0798956 0 -0.525984 
783 1 783 1.19973 0.119844 0 -0.879262 
784 1 784 1.19964 0.159796 0 -0.984973 
785 1 785 1.19955 0.199749 0 -0.736007 
786 1 786 1.19945 0.239707 0 -0.372459 
787 1 787 1.19935 0.279667 0 0.222073 
788 1 788 1.19925 0.319634 0 0.905255 
789 1 789 1.19914 0.359605 0 1.62436 
790 1 790 1.19903 0.399584 0 2.33987 
791 1 791 1.19892 0.439565 0 2.76215 