ITEM: TIMESTEP
0
ITEM: NUMBER OF ATOMS
7127
ITEM: BOX BOUNDS sm sm sm
0 4
0 2
0 0
ITEM: ATOMS id type tag x y z vx 
0 1 0 0 0 0 0 
1 1 1 0 0.04 0 0 
2 1 2 0 0.08 0 0 
3 1 3 0 0.12 0 0 
4 1 4 0 0.16 0 0 
5 1 5 0 0.2 0 0 
6 1 6 0 0.24 0 0 
7 1 7 0 0.28 0 0 
8 1 8 0 0.32 0 0 
9 1 9 0 0.36 0 0 
10 1 10 0 0.4 0 0 
11 1 11 0 0.44 0 0 
12 1 12 0 0.48 0 0 
13 1 13 0 0.52 0 0 
14 1 14 0 0.56 0 0 
15 1 15 0 0.6 0 0 
16 1 16 0 0.64 0 0 
17 1 17 0 0.68 0 0 
18 1 18 0 0.72 0 0 
19 1 19 0 0.76 0 0 
20 1 20 0 0.8 0 0 
21 1 21 0 0.84 0 0 
22 1 22 0 0.88 0 0 
23 1 23 0 0.92 0 0 
24 1 24 0 0.96 0 0 
25 1 25 0 1 0 0 
26 1 26 0.04 0 0 0 
27 1 27 0.0399998 0.0399999 0 -0.017014 
28 1 28 0.0399997 0.0799998 0 -0.0281261 
29 1 29 0.0399996 0.12 0 -0.0362006 
30 1 30 0.0399995 0.16 0 -0.043706 
31 1 31 0.0399994 0.2 0 -0.0506791 
32 1 32 0.0399993 0.24 0 -0.0574019 
33 1 33 0.0399993 0.28 0 -0.0638953 
34 1 34 0.0399992 0.32 0 -0.0701434 
35 1 35 0.0399991 0.36 0 -0.0760884 
36 1 36 0.039999 0.4 0 -0.0816541 
37 1 37 0.039999 0.44 0 -0.0867534 
38 1 38 0.0399989 0.48 0 -0.0912901 
39 1 39 0.0399989 0.52 0 -0.0951681 
40 1 40 0.0399988 0.56 0 -0.0982862 
41 1 41 0.0399988 0.6 0 -0.100557 
42 1 42 0.0399988 0.64 0 -0.101886 
43 1 43 0.0399988 0.68 0 -0.10222 
44 1 44 0.0399988 0.72 0 -0.101496 
45 1 45 0.0399988 0.76 0 -0.0997408 
46 1 46 0.0399988 0.8 0 -0.0970463 
47 1 47 0.0399989 0.84 0 -0.0935223 
48 1 48 0.0399989 0.88 0 -0.0905019 
49 1 49 0.039999 0.92 0 -0.0859166 
50 1 50 0.0399989 0.960001 0 -0.0937604 
51 1 51 0.0399988 1 0 -0.10511 
52 1 52 0.08 0 0 0 
53 1 53 0.0799996 0.0399998 0 -0.0362351 
54 1 54 0.0799993 0.0799997 0 -0.0617531 
55 1 55 0.0799991 0.12 0 -0.0806734 
56 1 56 0.0799989 0.16 0 -0.0975015 
57 1 57 0.0799987 0.2 0 -0.113008 
58 1 58 0.0799985 0.24 0 -0.127882 
59 1 59 0.0799983 0.28 0 -0.142197 
60 1 60 0.0799982 0.32 0 -0.155944 
61 1 61 0.079998 0.36 0 -0.168999 
62 1 62 0.0799978 0.4 0 -0.181195 
63 1 63 0.0799977 0.44 0 -0.192338 
64 1 64 0.0799976 0.48 0 -0.202215 
65 1 65 0.0799974 0.52 0 -0.210615 
66 1 66 0.0799974 0.56 0 -0.217318 
67 1 67 0.0799973 0.6 0 -0.222138 
68 1 68 0.0799972 0.64 0 -0.224882 
69 1 69 0.0799972 0.68 0 -0.225442 
70 1 70 0.0799972 0.72 0 -0.223724 
71 1 71 0.0799973 0.76 0 -0.219778 
72 1 72 0.0799974 0.8 0 -0.213991 
73 1 73 0.0799975 0.84 0 -0.206488 
74 1 74 0.0799975 0.88 0 -0.200588 
75 1 75 0.0799976 0.920001 0 -0.19472 
76 1 76 0.0799975 0.960001 0 -0.209722 
77 1 77 0.0799973 1 0 -0.228896 
78 1 78 0.12 0 0 0 
79 1 79 0.119999 0.0399997 0 -0.0631326 
80 1 80 0.119999 0.0799995 0 -0.108789 
81 1 81 0.119998 0.119999 0 -0.142901 
82 1 82 0.119998 0.159999 0 -0.172696 
83 1 83 0.119998 0.199999 0 -0.199869 
84 1 84 0.119997 0.239999 0 -0.225742 
85 1 85 0.119997 0.279999 0 -0.250521 
86 1 86 0.119997 0.319999 0 -0.274237 
87 1 87 0.119996 0.359999 0 -0.296702 
88 1 88 0.119996 0.399999 0 -0.317652 
89 1 89 0.119996 0.439999 0 -0.336773 
90 1 90 0.119996 0.48 0 -0.353719 
91 1 91 0.119995 0.52 0 -0.368146 
92 1 92 0.119995 0.56 0 -0.379694 
93 1 93 0.119995 0.6 0 -0.388051 
94 1 94 0.119995 0.64 0 -0.392899 
95 1 95 0.119995 0.68 0 -0.394051 
96 1 96 0.119995 0.72 0 -0.391383 
97 1 97 0.119995 0.76 0 -0.384979 
98 1 98 0.119995 0.8 0 -0.375671 
99 1 99 0.119995 0.840001 0 -0.363751 
100 1 100 0.119995 0.880001 0 -0.355151 
101 1 101 0.119996 0.920001 0 -0.348177 
102 1 102 0.119995 0.960002 0 -0.373046 
103 1 103 0.119995 1 0 -0.402982 
104 1 104 0.16 0 0 0 
105 1 105 0.159999 0.0399994 0 -0.103336 
106 1 106 0.159998 0.0799992 0 -0.178226 
107 1 107 0.159997 0.119999 0 -0.234148 
108 1 108 0.159996 0.159999 0 -0.282559 
109 1 109 0.159996 0.199999 0 -0.326221 
110 1 110 0.159995 0.239999 0 -0.367445 
111 1 111 0.159995 0.279999 0 -0.406668 
112 1 112 0.159994 0.319999 0 -0.444008 
113 1 113 0.159994 0.359999 0 -0.4792 
114 1 114 0.159993 0.399999 0 -0.511849 
115 1 115 0.159993 0.439999 0 -0.541474 
116 1 116 0.159993 0.479999 0 -0.567547 
117 1 117 0.159992 0.519999 0 -0.589546 
118 1 118 0.159992 0.56 0 -0.606935 
119 1 119 0.159992 0.6 0 -0.619267 
120 1 120 0.159992 0.64 0 -0.6261 
121 1 121 0.159992 0.68 0 -0.62721 
122 1 122 0.159992 0.72 0 -0.622514 
123 1 123 0.159992 0.76 0 -0.612229 
124 1 124 0.159992 0.800001 0 -0.597923 
125 1 125 0.159992 0.840001 0 -0.580144 
126 1 126 0.159992 0.880001 0 -0.56874 
127 1 127 0.159993 0.920002 0 -0.559768 
128 1 128 0.159992 0.960003 0 -0.600663 
129 1 129 0.159992 1 0 -0.649047 
130 1 130 0.2 0 0 0 
131 1 131 0.199998 0.0399991 0 -0.162517 
132 1 132 0.199996 0.0799986 0 -0.280253 
133 1 133 0.199995 0.119998 0 -0.367818 
134 1 134 0.199994 0.159998 0 -0.442808 
135 1 135 0.199993 0.199998 0 -0.509638 
136 1 136 0.199992 0.239998 0 -0.572153 
137 1 137 0.199992 0.279998 0 -0.631162 
138 1 138 0.199991 0.319998 0 -0.686987 
139 1 139 0.19999 0.359998 0 -0.739309 
140 1 140 0.199989 0.399999 0 -0.787615 
141 1 141 0.199989 0.439999 0 -0.83126 
142 1 142 0.199988 0.479999 0 -0.869529 
143 1 143 0.199987 0.519999 0 -0.901724 
144 1 144 0.199987 0.559999 0 -0.927113 
145 1 145 0.199987 0.599999 0 -0.945101 
146 1 146 0.199986 0.64 0 -0.955083 
147 1 147 0.199986 0.68 0 -0.956783 
148 1 148 0.199986 0.72 0 -0.950181 
149 1 149 0.199987 0.760001 0 -0.935646 
150 1 150 0.199987 0.800001 0 -0.915941 
151 1 151 0.199987 0.840002 0 -0.891656 
152 1 152 0.199988 0.880002 0 -0.878773 
153 1 153 0.199988 0.920003 0 -0.869599 
154 1 154 0.199987 0.960005 0 -0.935922 
155 1 155 0.199986 1.00001 0 -1.01223 
156 1 156 0.24 0 0 0 
157 1 157 0.239997 0.0399985 0 -0.247341 
158 1 158 0.239994 0.0799978 0 -0.426439 
159 1 159 0.239992 0.119997 0 -0.558961 
160 1 160 0.239991 0.159997 0 -0.671018 
161 1 161 0.239989 0.199997 0 -0.769505 
162 1 162 0.239988 0.239997 0 -0.86062 
163 1 163 0.239987 0.279997 0 -0.945789 
164 1 164 0.239985 0.319997 0 -1.02572 
165 1 165 0.239984 0.359997 0 -1.10009 
166 1 166 0.239983 0.399998 0 -1.16823 
167 1 167 0.239982 0.439998 0 -1.22932 
168 1 168 0.239981 0.479998 0 -1.28239 
169 1 169 0.23998 0.519998 0 -1.32654 
170 1 170 0.23998 0.559999 0 -1.36081 
171 1 171 0.239979 0.599999 0 -1.38449 
172 1 172 0.239979 0.64 0 -1.39688 
173 1 173 0.239979 0.68 0 -1.39778 
174 1 174 0.239979 0.720001 0 -1.38748 
175 1 175 0.239979 0.760001 0 -1.36668 
176 1 176 0.23998 0.800002 0 -1.3402 
177 1 177 0.23998 0.840002 0 -1.30843 
178 1 178 0.239981 0.880004 0 -1.29653 
179 1 179 0.239981 0.920005 0 -1.29063 
180 1 180 0.23998 0.960007 0 -1.39506 
181 1 181 0.239978 1.00001 0 -1.51164 
182 1 182 0.28 0 0 0 
183 1 183 0.279995 0.0399977 0 -0.364639 
184 1 184 0.279991 0.0799965 0 -0.628782 
185 1 185 0.279988 0.119996 0 -0.823294 
186 1 186 0.279986 0.159996 0 -0.985418 
187 1 187 0.279983 0.199996 0 -1.12561 
188 1 188 0.279981 0.239996 0 -1.25359 
189 1 189 0.279979 0.279996 0 -1.37179 
190 1 190 0.279977 0.319996 0 -1.48166 
191 1 191 0.279976 0.359996 0 -1.58295 
192 1 192 0.279974 0.399996 0 -1.67502 
193 1 193 0.279972 0.439997 0 -1.75691 
194 1 194 0.279971 0.479997 0 -1.82752 
195 1 195 0.27997 0.519998 0 -1.88583 
196 1 196 0.279969 0.559998 0 -1.93075 
197 1 197 0.279968 0.599999 0 -1.96151 
198 1 198 0.279968 0.639999 0 -1.97735 
199 1 199 0.279968 0.68 0 -1.9782 
200 1 200 0.279968 0.720001 0 -1.96485 
201 1 201 0.279968 0.760002 0 -1.93833 
202 1 202 0.279969 0.800003 0 -1.90664 
203 1 203 0.27997 0.840004 0 -1.86943 
204 1 204 0.27997 0.880006 0 -1.8652 
205 1 205 0.279971 0.920007 0 -1.86998 
206 1 206 0.279968 0.960012 0 -2.02936 
207 1 207 0.279966 1.00002 0 -2.20162 
208 1 208 0.32 0 0 0 
209 1 209 0.319992 0.0399965 0 -0.520037 
210 1 210 0.319986 0.0799946 0 -0.897418 
211 1 211 0.319982 0.119994 0 -1.17417 
212 1 212 0.319978 0.159993 0 -1.4011 
213 1 213 0.319975 0.199993 0 -1.59359 
214 1 214 0.319972 0.239993 0 -1.76645 
215 1 215 0.319969 0.279993 0 -1.92372 
216 1 216 0.319966 0.319994 0 -2.06813 
217 1 217 0.319964 0.359994 0 -2.19979 
218 1 218 0.319961 0.399994 0 -2.31818 
219 1 219 0.319959 0.439995 0 -2.42235 
220 1 220 0.319957 0.479996 0 -2.51108 
221 1 221 0.319956 0.519996 0 -2.58332 
222 1 222 0.319954 0.559997 0 -2.63787 
223 1 223 0.319953 0.599998 0 -2.67411 
224 1 224 0.319953 0.639999 0 -2.69145 
225 1 225 0.319953 0.68 0 -2.69024 
226 1 226 0.319953 0.720002 0 -2.67247 
227 1 227 0.319954 0.760003 0 -2.63969 
228 1 228 0.319955 0.800005 0 -2.60504 
229 1 229 0.319956 0.840006 0 -2.56639 
230 1 230 0.319956 0.880009 0 -2.58074 
231 1 231 0.319956 0.920012 0 -2.60831 
232 1 232 0.319953 0.960018 0 -2.84313 
233 1 233 0.319949 1.00002 0 -3.08869 
234 1 234 0.36 0 0 0 
235 1 235 0.359988 0.0399948 0 -0.715889 
236 1 236 0.359979 0.079992 0 -1.23739 
237 1 237 0.359973 0.119991 0 -1.61879 
238 1 238 0.359968 0.15999 0 -1.92596 
239 1 239 0.359963 0.19999 0 -2.18074 
240 1 240 0.359959 0.23999 0 -2.40496 
241 1 241 0.359955 0.27999 0 -2.60512 
242 1 242 0.359951 0.31999 0 -2.78604 
243 1 243 0.359947 0.359991 0 -2.94857 
244 1 244 0.359944 0.399992 0 -3.09275 
245 1 245 0.359941 0.439993 0 -3.21789 
246 1 246 0.359938 0.479994 0 -3.32301 
247 1 247 0.359936 0.519995 0 -3.40735 
248 1 248 0.359935 0.559996 0 -3.46997 
249 1 249 0.359933 0.599997 0 -3.51067 
250 1 250 0.359933 0.639999 0 -3.52932 
251 1 251 0.359932 0.68 0 -3.52688 
252 1 252 0.359933 0.720002 0 -3.50716 
253 1 253 0.359934 0.760004 0 -3.47213 
254 1 254 0.359935 0.800007 0 -3.44239 
255 1 255 0.359936 0.840009 0 -3.4122 
256 1 256 0.359936 0.880013 0 -3.4632 
257 1 257 0.359936 0.920017 0 -3.53222 
258 1 258 0.35993 0.960026 0 -3.86499 
259 1 259 0.359925 1.00003 0 -4.20154 
260 1 260 0.4 0 0 0 
261 1 261 0.399983 0.0399926 0 -0.948083 
262 1 262 0.39997 0.0799885 0 -1.64332 
263 1 263 0.399961 0.119986 0 -2.15146 
264 1 264 0.399953 0.159985 0 -2.55256 
265 1 265 0.399947 0.199985 0 -2.8765 
266 1 266 0.399941 0.239985 0 -3.15434 
267 1 267 0.399935 0.279986 0 -3.39628 
268 1 268 0.39993 0.319986 0 -3.61047 
269 1 269 0.399926 0.359987 0 -3.79925 
270 1 270 0.399921 0.399988 0 -3.96379 
271 1 271 0.399917 0.439989 0 -4.10415 
272 1 272 0.399914 0.479991 0 -4.21989 
273 1 273 0.399911 0.519992 0 -4.31088 
274 1 274 0.399909 0.559994 0 -4.37667 
275 1 275 0.399907 0.599996 0 -4.41782 
276 1 276 0.399907 0.639998 0 -4.43523 
277 1 277 0.399906 0.680001 0 -4.43095 
278 1 278 0.399907 0.720004 0 -4.41201 
279 1 279 0.399908 0.760006 0 -4.38078 
280 1 280 0.399909 0.80001 0 -4.3688 
281 1 281 0.39991 0.840013 0 -4.36378 
282 1 282 0.39991 0.880019 0 -4.4781 
283 1 283 0.399909 0.920025 0 -4.61542 
284 1 284 0.399901 0.960037 0 -5.06809 
285 1 285 0.399893 1.00005 0 -5.50997 
286 1 286 0.44 0 0 0 
287 1 287 0.439976 0.0399897 0 -1.20287 
288 1 288 0.439958 0.0799838 0 -2.09455 
289 1 289 0.439945 0.119981 0 -2.74805 
290 1 290 0.439935 0.159979 0 -3.25289 
291 1 291 0.439926 0.199979 0 -3.64825 
292 1 292 0.439918 0.239979 0 -3.97661 
293 1 293 0.439911 0.27998 0 -4.2533 
294 1 294 0.439904 0.319981 0 -4.49143 
295 1 295 0.439898 0.359982 0 -4.69567 
296 1 296 0.439893 0.399983 0 -4.86917 
297 1 297 0.439888 0.439985 0 -5.01333 
298 1 298 0.439883 0.479987 0 -5.1289 
299 1 299 0.43988 0.51999 0 -5.21701 
300 1 300 0.439877 0.559992 0 -5.27839 
301 1 301 0.439875 0.599995 0 -5.31501 
302 1 302 0.439874 0.639998 0 -5.32956 
303 1 303 0.439874 0.680001 0 -5.32544 
304 1 304 0.439874 0.720005 0 -5.31442 
305 1 305 0.439875 0.760009 0 -5.29852 
306 1 306 0.439876 0.800014 0 -5.32412 
307 1 307 0.439878 0.840019 0 -5.36798 
308 1 308 0.439876 0.880028 0 -5.57857 
309 1 309 0.439874 0.920036 0 -5.81588 
310 1 310 0.439863 0.960052 0 -6.4019 
311 1 311 0.439851 1.00007 0 -6.95371 
312 1 312 0.48 0 0 0 
313 1 313 0.479967 0.0399862 0 -1.45328 
314 1 314 0.479944 0.079978 0 -2.54903 
315 1 315 0.479926 0.119974 0 -3.3583 
316 1 316 0.479912 0.159972 0 -3.96935 
317 1 317 0.4799 0.199971 0 -4.43093 
318 1 318 0.47989 0.239971 0 -4.79848 
319 1 319 0.479881 0.279972 0 -5.09428 
320 1 320 0.479872 0.319974 0 -5.33854 
321 1 321 0.479865 0.359976 0 -5.53975 
322 1 322 0.479858 0.399978 0 -5.70438 
323 1 323 0.479852 0.43998 0 -5.83622 
324 1 324 0.479847 0.479983 0 -5.93796 
325 1 325 0.479843 0.519986 0 -6.01257 
326 1 326 0.47984 0.55999 0 -6.06238 
327 1 327 0.479838 0.599993 0 -6.09115 
328 1 328 0.479836 0.639998 0 -6.10415 
329 1 329 0.479836 0.680002 0 -6.10641 
330 1 330 0.479836 0.720007 0 -6.11677 
331 1 331 0.479837 0.760012 0 -6.13578 
332 1 332 0.479838 0.800019 0 -6.22942 
333 1 333 0.479839 0.840026 0 -6.35722 
334 1 334 0.479835 0.880038 0 -6.70595 
335 1 335 0.479831 0.920049 0 -7.0812 
336 1 336 0.479816 0.96007 0 -7.80087 
337 1 337 0.4798 1.00009 0 -8.45185 
338 1 338 0.52 0 0 0 
339 1 339 0.519957 0.0399821 0 -1.65838 
340 1 340 0.519926 0.0799711 0 -2.94244 
341 1 341 0.519903 0.119965 0 -3.90577 
342 1 342 0.519884 0.159962 0 -4.61699 
343 1 343 0.519869 0.199961 0 -5.13314 
344 1 344 0.519856 0.239962 0 -5.52281 
345 1 345 0.519845 0.279963 0 -5.81699 
346 1 346 0.519835 0.319965 0 -6.04526 
347 1 347 0.519826 0.359968 0 -6.22127 
348 1 348 0.519818 0.399971 0 -6.35597 
349 1 349 0.519812 0.439974 0 -6.45623 
350 1 350 0.519806 0.479978 0 -6.52729 
351 1 351 0.519801 0.519982 0 -6.57461 
352 1 352 0.519797 0.559987 0 -6.60297 
353 1 353 0.519795 0.599992 0 -6.61854 
354 1 354 0.519793 0.639997 0 -6.63062 
355 1 355 0.519793 0.680003 0 -6.64584 
356 1 356 0.519793 0.72001 0 -6.69284 
357 1 357 0.519794 0.760016 0 -6.76824 
358 1 358 0.519793 0.800026 0 -6.96222 
359 1 359 0.519793 0.840035 0 -7.20908 
360 1 360 0.519787 0.880051 0 -7.7312 
361 1 361 0.51978 0.920066 0 -8.2732 
362 1 362 0.519759 0.960092 0 -9.09835 
363 1 363 0.519738 1.00012 0 -9.81317 
364 1 364 0.56 0 0 0 
365 1 365 0.559946 0.0399777 0 -1.76399 
366 1 366 0.559906 0.0799635 0 -3.18874 
367 1 367 0.559876 0.119955 0 -4.28786 
368 1 368 0.559853 0.159951 0 -5.08353 
369 1 369 0.559834 0.19995 0 -5.63689 
370 1 370 0.559819 0.239951 0 -6.02697 
371 1 371 0.559806 0.279953 0 -6.29477 
372 1 372 0.559794 0.319956 0 -6.48149 
373 1 373 0.559784 0.359959 0 -6.60783 
374 1 374 0.559775 0.399963 0 -6.6912 
375 1 375 0.559768 0.439968 0 -6.74291 
376 1 376 0.559761 0.479973 0 -6.77185 
377 1 377 0.559756 0.519978 0 -6.7865 
378 1 378 0.559753 0.559984 0 -6.79444 
379 1 379 0.55975 0.59999 0 -6.804 
380 1 380 0.559748 0.639997 0 -6.82925 
381 1 381 0.559747 0.680004 0 -6.87743 
382 1 382 0.559747 0.720013 0 -6.98989 
383 1 383 0.559746 0.760021 0 -7.15564 
384 1 384 0.559744 0.800034 0 -7.49282 
385 1 385 0.559741 0.840046 0 -7.90107 
386 1 386 0.559731 0.880066 0 -8.62722 
387 1 387 0.55972 0.920086 0 -9.35511 
388 1 388 0.559693 0.960117 0 -10.2275 
389 1 389 0.559668 1.00015 0 -10.9438 
390 1 390 0.6 0 0 0 
391 1 391 0.599935 0.0399733 0 -1.71171 
392 1 392 0.599885 0.0799556 0 -3.19466 
393 1 393 0.599847 0.119945 0 -4.39437 
394 1 394 0.599819 0.15994 0 -5.25285 
395 1 395 0.599796 0.199938 0 -5.82762 
396 1 396 0.599778 0.239939 0 -6.20152 
397 1 397 0.599763 0.279942 0 -6.42597 
398 1 398 0.599751 0.319946 0 -6.5553 
399 1 399 0.59974 0.35995 0 -6.61845 
400 1 400 0.599731 0.399955 0 -6.64019 
401 1 401 0.599723 0.439961 0 -6.63631 
402 1 402 0.599716 0.479967 0 -6.61919 
403 1 403 0.599711 0.519974 0 -6.6 
404 1 404 0.599707 0.559981 0 -6.58956 
405 1 405 0.599704 0.599988 0 -6.59836 
406 1 406 0.599702 0.639997 0 -6.64723 
407 1 407 0.5997 0.680005 0 -6.74302 
408 1 408 0.599699 0.720017 0 -6.94328 
409 1 409 0.599697 0.760027 0 -7.22421 
410 1 410 0.599692 0.800043 0 -7.73338 
411 1 411 0.599686 0.840058 0 -8.32614 
412 1 412 0.59967 0.880083 0 -9.25259 
413 1 413 0.599653 0.920108 0 -10.1491 
414 1 414 0.59962 0.960143 0 -10.9678 
415 1 415 0.59959 1.00018 0 -11.5939 
416 1 416 0.64 0 0 0 
417 1 417 0.639924 0.0399695 0 -1.44868 
418 1 418 0.639864 0.0799481 0 -2.87318 
419 1 419 0.639819 0.119935 0 -4.12144 
420 1 420 0.639784 0.159928 0 -5.01922 
421 1 421 0.639758 0.199926 0 -5.60815 
422 1 422 0.639738 0.239927 0 -5.96218 
423 1 423 0.639722 0.27993 0 -6.1412 
424 1 424 0.639708 0.319935 0 -6.21226 
425 1 425 0.639697 0.359941 0 -6.21328 
426 1 426 0.639687 0.399947 0 -6.17772 
427 1 427 0.63968 0.439954 0 -6.12677 
428 1 428 0.639673 0.479962 0 -6.07723 
429 1 429 0.639668 0.519969 0 -6.04297 
430 1 430 0.639664 0.559978 0 -6.03817 
431 1 431 0.63966 0.599987 0 -6.07381 
432 1 432 0.639658 0.639997 0 -6.17799 
433 1 433 0.639655 0.680007 0 -6.35358 
434 1 434 0.639651 0.720021 0 -6.6766 
435 1 435 0.639647 0.760033 0 -7.10337 
436 1 436 0.639638 0.800053 0 -7.80844 
437 1 437 0.639627 0.840072 0 -8.59529 
438 1 438 0.639604 0.880102 0 -9.68479 
439 1 439 0.639581 0.920132 0 -10.6961 
440 1 440 0.639543 0.960171 0 -11.331 
441 1 441 0.639509 1.00021 0 -11.7574 
442 1 442 0.68 0 0 0 
443 1 443 0.679915 0.039967 0 -0.950435 
444 1 444 0.679847 0.0799422 0 -2.18 
445 1 445 0.679793 0.119926 0 -3.41541 
446 1 446 0.679752 0.159917 0 -4.33643 
447 1 447 0.679722 0.199914 0 -4.95182 
448 1 448 0.6797 0.239915 0 -5.3076 
449 1 449 0.679682 0.279919 0 -5.46769 
450 1 450 0.679668 0.319925 0 -5.50917 
451 1 451 0.679657 0.359932 0 -5.47857 
452 1 452 0.679648 0.399939 0 -5.41789 
453 1 453 0.67964 0.439947 0 -5.35242 
454 1 454 0.679634 0.479956 0 -5.3022 
455 1 455 0.679628 0.519965 0 -5.2819 
456 1 456 0.679624 0.559975 0 -5.30898 
457 1 457 0.67962 0.599985 0 -5.39384 
458 1 458 0.679616 0.639997 0 -5.57447 
459 1 459 0.679612 0.680008 0 -5.84729 
460 1 460 0.679606 0.720025 0 -6.30945 
461 1 461 0.679598 0.76004 0 -6.88952 
462 1 462 0.679584 0.800063 0 -7.78071 
463 1 463 0.679567 0.840087 0 -8.73114 
464 1 464 0.679536 0.880121 0 -9.88989 
465 1 465 0.679506 0.920157 0 -10.9088 
466 1 466 0.679465 0.960198 0 -11.2131 
467 1 467 0.679428 1.00024 0 -11.33 
468 1 468 0.72 0 0 0 
469 1 469 0.71991 0.0399662 0 -0.233408 
470 1 470 0.719834 0.0799386 0 -1.12812 
471 1 471 0.719772 0.119919 0 -2.28292 
472 1 472 0.719726 0.159908 0 -3.22134 
473 1 473 0.719692 0.199904 0 -3.8994 
474 1 474 0.719666 0.239905 0 -4.31011 
475 1 475 0.719647 0.279909 0 -4.51267 
476 1 476 0.719633 0.319916 0 -4.58672 
477 1 477 0.719622 0.359923 0 -4.58466 
478 1 478 0.719613 0.399932 0 -4.55585 
479 1 479 0.719605 0.439941 0 -4.52912 
480 1 480 0.719599 0.479951 0 -4.52835 
481 1 481 0.719594 0.519961 0 -4.56862 
482 1 482 0.719589 0.559973 0 -4.67142 
483 1 483 0.719584 0.599983 0 -4.8438 
484 1 484 0.719578 0.639997 0 -5.13413 
485 1 485 0.719572 0.68001 0 -5.52637 
486 1 486 0.719562 0.720029 0 -6.13819 
487 1 487 0.719549 0.760047 0 -6.86227 
488 1 488 0.719528 0.800074 0 -7.89613 
489 1 489 0.719504 0.840102 0 -8.93893 
490 1 490 0.719466 0.88014 0 -10.022 
491 1 491 0.719429 0.920181 0 -10.8986 
492 1 492 0.719386 0.960223 0 -10.745 
493 1 493 0.71935 1.00026 0 -10.4719 
494 1 494 0.76 0 0 0 
495 1 495 0.75991 0.0399675 0 0.621349 
496 1 496 0.759829 0.0799382 0 0.171841 
497 1 497 0.759759 0.119916 0 -0.841571 
498 1 498 0.759706 0.159902 0 -1.80905 
499 1 499 0.759667 0.199896 0 -2.61226 
500 1 500 0.759639 0.239896 0 -3.16153 
501 1 501 0.759618 0.2799 0 -3.49821 
502 1 502 0.759603 0.319907 0 -3.6933 
503 1 503 0.759592 0.359916 0 -3.80172 
504 1 504 0.759582 0.399925 0 -3.87867 
505 1 505 0.759575 0.439935 0 -3.95519 
506 1 506 0.759568 0.479946 0 -4.05841 
507 1 507 0.759562 0.519957 0 -4.20185 
508 1 508 0.759556 0.559969 0 -4.41205 
509 1 509 0.759549 0.599981 0 -4.6916 
510 1 510 0.759541 0.639997 0 -5.10303 
511 1 511 0.759532 0.680011 0 -5.61466 
512 1 512 0.759517 0.720033 0 -6.36333 
513 1 513 0.7595 0.760054 0 -7.19864 
514 1 514 0.759471 0.800085 0 -8.29873 
515 1 515 0.75944 0.840118 0 -9.32945 
516 1 516 0.759395 0.880159 0 -10.1612 
517 1 517 0.759352 0.920203 0 -10.7275 
518 1 518 0.759312 0.960244 0 -10.0512 
519 1 519 0.759279 1.00028 0 -9.36929 
520 1 520 0.8 0 0 0 
521 1 521 0.799915 0.0399711 0 1.47588 
522 1 522 0.799831 0.0799412 0 1.53096 
523 1 523 0.799756 0.119916 0 0.717018 
524 1 524 0.799696 0.1599 0 -0.292525 
525 1 525 0.799651 0.199892 0 -1.28959 
526 1 526 0.799618 0.23989 0 -2.07557 
527 1 527 0.799595 0.279894 0 -2.65825 
528 1 528 0.799578 0.3199 0 -3.08362 
529 1 529 0.799565 0.359909 0 -3.40187 
530 1 530 0.799555 0.399919 0 -3.66936 
531 1 531 0.799546 0.439929 0 -3.91714 
532 1 532 0.799538 0.479941 0 -4.17678 
533 1 533 0.79953 0.519952 0 -4.4607 
534 1 534 0.799522 0.559966 0 -4.80371 
535 1 535 0.799513 0.599978 0 -5.20202 
536 1 536 0.799502 0.639996 0 -5.73322 
537 1 537 0.799488 0.680012 0 -6.34358 
538 1 538 0.799468 0.720036 0 -7.18309 
539 1 539 0.799444 0.760062 0 -8.05628 
540 1 540 0.799408 0.800096 0 -9.09651 
541 1 541 0.79937 0.840135 0 -9.97073 
542 1 542 0.79932 0.880178 0 -10.3646 
543 1 543 0.799275 0.920223 0 -10.4672 
544 1 544 0.79924 0.960262 0 -9.30526 
545 1 545 0.799213 1.0003 0 -8.28268 
546 1 546 0.84 0 0 0 
547 1 547 0.839925 0.0399762 0 2.141 
548 1 548 0.839842 0.0799473 0 2.67942 
549 1 549 0.839761 0.119921 0 2.10813 
550 1 550 0.839694 0.159902 0 1.04425 
551 1 551 0.839642 0.19989 0 -0.207854 
552 1 552 0.839603 0.239886 0 -1.32066 
553 1 553 0.839575 0.279888 0 -2.24801 
554 1 554 0.839554 0.319894 0 -2.99021 
555 1 555 0.839538 0.359902 0 -3.58574 
556 1 556 0.839526 0.399912 0 -4.09012 
557 1 557 0.839515 0.439922 0 -4.53594 
558 1 558 0.839505 0.479935 0 -4.96313 
559 1 559 0.839495 0.519946 0 -5.38448 
560 1 560 0.839484 0.559961 0 -5.84756 
561 1 561 0.839472 0.599974 0 -6.34284 
562 1 562 0.839457 0.639994 0 -6.96708 
563 1 563 0.839438 0.680013 0 -7.64267 
564 1 564 0.839412 0.720041 0 -8.52361 
565 1 565 0.839382 0.76007 0 -9.36953 
566 1 566 0.839339 0.800109 0 -10.2345 
567 1 567 0.839296 0.840151 0 -10.8285 
568 1 568 0.839244 0.880195 0 -10.6537 
569 1 569 0.8392 0.920241 0 -10.2072 
570 1 570 0.839174 0.960277 0 -8.71997 
571 1 571 0.839153 1.00031 0 -7.51712 
572 1 572 0.88 0 0 0 
573 1 573 0.879938 0.039982 0 2.42283 
574 1 574 0.879858 0.0799553 0 3.34212 
575 1 575 0.879773 0.119928 0 3.05648 
576 1 576 0.879699 0.159906 0 1.96598 
577 1 577 0.879638 0.199891 0 0.457589 
578 1 578 0.879591 0.239884 0 -1.01576 
579 1 579 0.879555 0.279882 0 -2.33989 
580 1 580 0.879529 0.319887 0 -3.45079 
581 1 581 0.879508 0.359893 0 -4.36668 
582 1 582 0.879492 0.399904 0 -5.13546 
583 1 583 0.879477 0.439913 0 -5.7885 
584 1 584 0.879463 0.479927 0 -6.37597 
585 1 585 0.87945 0.519938 0 -6.91322 
586 1 586 0.879436 0.559955 0 -7.46661 
587 1 587 0.87942 0.59997 0 -8.02137 
588 1 588 0.8794 0.639992 0 -8.69289 
589 1 589 0.879377 0.680015 0 -9.37504 
590 1 590 0.879344 0.720046 0 -10.2117 
591 1 591 0.879309 0.760081 0 -10.9298 
592 1 592 0.879261 0.800122 0 -11.4818 
593 1 593 0.879214 0.840169 0 -11.6827 
594 1 594 0.879165 0.880213 0 -10.894 
595 1 595 0.879124 0.920256 0 -9.92439 
596 1 596 0.879108 0.96029 0 -8.39474 
597 1 597 0.879096 1.00032 0 -7.24818 
598 1 598 0.92 0 0 0 
599 1 599 0.919951 0.039987 0 2.1667 
600 1 600 0.919876 0.0799634 0 3.28728 
601 1 601 0.919789 0.119936 0 3.32108 
602 1 602 0.919707 0.159911 0 2.27494 
603 1 603 0.919635 0.199892 0 0.580037 
604 1 604 0.919577 0.239881 0 -1.21443 
605 1 605 0.919533 0.279876 0 -2.91205 
606 1 606 0.919498 0.319878 0 -4.3632 
607 1 607 0.919471 0.359883 0 -5.55611 
608 1 608 0.919449 0.399893 0 -6.52845 
609 1 609 0.91943 0.439903 0 -7.31627 
610 1 610 0.919412 0.479917 0 -7.9897 
611 1 611 0.919395 0.519929 0 -8.57268 
612 1 612 0.919377 0.559948 0 -9.15571 
613 1 613 0.919357 0.599966 0 -9.71867 
614 1 614 0.919332 0.639991 0 -10.3936 
615 1 615 0.919305 0.680018 0 -11.0454 
616 1 616 0.919266 0.720053 0 -11.7896 
617 1 617 0.919226 0.760094 0 -12.336 
618 1 618 0.919174 0.800138 0 -12.5098 
619 1 619 0.919127 0.840187 0 -12.2861 
620 1 620 0.919084 0.88023 0 -10.9609 
621 1 621 0.919051 0.92027 0 -9.60117 
622 1 622 0.919045 0.960303 0 -8.35175 
623 1 623 0.919039 1.00033 0 -7.50964 
624 1 624 0.96 0 0 0 
625 1 625 0.959961 0.0399898 0 1.32763 
626 1 626 0.959891 0.0799694 0 2.42865 
627 1 627 0.959804 0.119943 0 2.80923 
628 1 628 0.959715 0.159916 0 1.94116 
629 1 629 0.959632 0.199892 0 0.237598 
630 1 630 0.959562 0.239877 0 -1.72237 
631 1 631 0.959506 0.279868 0 -3.66455 
632 1 632 0.959461 0.319868 0 -5.34991 
633 1 633 0.959425 0.359871 0 -6.73349 
634 1 634 0.959396 0.39988 0 -7.83662 
635 1 635 0.959372 0.43989 0 -8.69569 
636 1 636 0.959349 0.479905 0 -9.39861 
637 1 637 0.959328 0.51992 0 -9.97731 
638 1 638 0.959306 0.559941 0 -10.5497 
639 1 639 0.959282 0.599962 0 -11.0911 
640 1 640 0.959252 0.639991 0 -11.7441 
641 1 641 0.95922 0.680024 0 -12.3415 
642 1 642 0.959177 0.720063 0 -12.9479 
643 1 643 0.959133 0.760109 0 -13.282 
644 1 644 0.959081 0.800156 0 -13.0434 
645 1 645 0.959036 0.840206 0 -12.4259 
646 1 646 0.959002 0.880248 0 -10.7706 
647 1 647 0.958978 0.920284 0 -9.27574 
648 1 648 0.958978 0.960315 0 -8.61792 
649 1 649 0.958977 1.00034 0 -8.28504 
650 1 650 1 0 0 0 
651 1 651 0.999964 0.0399892 0 -0.0126735 
652 1 652 0.999899 0.0799716 0 0.841285 
653 1 653 0.999814 0.119947 0 1.57803 
654 1 654 0.999719 0.159918 0 1.07148 
655 1 655 0.999625 0.199891 0 -0.376333 
656 1 656 0.999542 0.239871 0 -2.26168 
657 1 657 0.999473 0.279858 0 -4.24843 
658 1 658 0.999417 0.319855 0 -6.00663 
659 1 659 0.999372 0.359856 0 -7.44734 
660 1 660 0.999336 0.399865 0 -8.56785 
661 1 661 0.999307 0.439875 0 -9.40835 
662 1 662 0.99928 0.479893 0 -10.0822 
663 1 663 0.999255 0.51991 0 -10.633 
664 1 664 0.999229 0.559935 0 -11.2013 
665 1 665 0.999202 0.599961 0 -11.7458 
666 1 666 0.999167 0.639994 0 -12.3993 
667 1 667 0.999131 0.680033 0 -12.9588 
668 1 668 0.999083 0.720077 0 -13.419 
669 1 669 0.999037 0.760127 0 -13.5441 
670 1 670 0.998986 0.800175 0 -12.9243 
671 1 671 0.998946 0.840225 0 -12.0035 
672 1 672 0.998923 0.880265 0 -10.2828 
673 1 673 0.998909 0.920297 0 -8.91331 
674 1 674 0.998911 0.960329 0 -8.99126 
675 1 675 0.998911 1.00036 0 -9.23707 
676 1 676 1.04 0 0 0 
677 1 677 1.03996 0.0399848 0 -1.58838 
678 1 678 1.0399 0.0799687 0 -1.158 
679 1 679 1.03981 0.119946 0 -0.108784 
680 1 680 1.03972 0.159916 0 -0.0893589 
681 1 681 1.03961 0.199887 0 -0.999977 
682 1 682 1.03952 0.239863 0 -2.53125 
683 1 683 1.03944 0.279846 0 -4.3188 
684 1 684 1.03937 0.31984 0 -5.96738 
685 1 685 1.03932 0.359839 0 -7.34867 
686 1 686 1.03927 0.399849 0 -8.43006 
687 1 687 1.03924 0.43986 0 -9.24424 
688 1 688 1.03921 0.479881 0 -9.91243 
689 1 689 1.03918 0.519901 0 -10.4752 
690 1 690 1.03915 0.55993 0 -11.0855 
691 1 691 1.03912 0.599962 0 -11.6843 
692 1 692 1.03908 0.64 0 -12.3862 
693 1 693 1.03904 0.680045 0 -12.9576 
694 1 694 1.03899 0.720093 0 -13.3023 
695 1 695 1.03894 0.760147 0 -13.2618 
696 1 696 1.03889 0.800196 0 -12.3482 
697 1 697 1.03886 0.840243 0 -11.257 
698 1 698 1.03885 0.880281 0 -9.75394 
699 1 699 1.03884 0.92031 0 -8.73922 
700 1 700 1.03884 0.960342 0 -9.49709 
701 1 701 1.03884 1.00037 0 -10.2325 
702 1 702 1.08 0 0 0 
703 1 703 1.07994 0.0399772 0 -3.07018 
704 1 704 1.07988 0.079961 0 -3.18079 
705 1 705 1.0798 0.11994 0 -1.9325 
706 1 706 1.07971 0.159911 0 -1.2651 
707 1 707 1.0796 0.19988 0 -1.37407 
708 1 708 1.0795 0.239854 0 -2.28131 
709 1 709 1.0794 0.279834 0 -3.65299 
710 1 710 1.07933 0.319826 0 -5.06591 
711 1 711 1.07927 0.359823 0 -6.3428 
712 1 712 1.07922 0.399834 0 -7.40062 
713 1 713 1.07917 0.439846 0 -8.25156 
714 1 714 1.07914 0.479869 0 -9.01763 
715 1 715 1.07911 0.519894 0 -9.73132 
716 1 716 1.07907 0.559928 0 -10.5393 
717 1 717 1.07903 0.599966 0 -11.3359 
718 1 718 1.07899 0.640009 0 -12.177 
719 1 719 1.07894 0.680061 0 -12.7914 
720 1 720 1.07889 0.720112 0 -12.9885 
721 1 721 1.07884 0.760167 0 -12.7488 
722 1 722 1.0788 0.800216 0 -11.5831 
723 1 723 1.07878 0.840258 0 -10.4153 
724 1 724 1.07877 0.880295 0 -9.33749 
725 1 725 1.07877 0.920322 0 -8.80184 
726 1 726 1.07877 0.960355 0 -9.97907 
727 1 727 1.07876 1.00039 0 -10.9714 
728 1 728 1.12 0 0 0 
729 1 729 1.11992 0.039968 0 -4.0408 
730 1 730 1.11986 0.0799499 0 -4.70319 
731 1 731 1.11979 0.11993 0 -3.47003 
732 1 732 1.11969 0.159903 0 -2.20342 
733 1 733 1.11958 0.199873 0 -1.44019 
734 1 734 1.11948 0.239846 0 -1.61765 
735 1 735 1.11938 0.279823 0 -2.4793 
736 1 736 1.11929 0.319813 0 -3.6213 
737 1 737 1.11922 0.35981 0 -4.82443 
738 1 738 1.11916 0.39982 0 -5.95117 
739 1 739 1.11912 0.439835 0 -6.97667 
740 1 740 1.11907 0.479861 0 -7.9904 
741 1 741 1.11904 0.51989 0 -8.98241 
742 1 742 1.11899 0.559928 0 -10.0673 
743 1 743 1.11895 0.599973 0 -11.0936 
744 1 744 1.1189 0.640021 0 -12.0675 
745 1 745 1.11885 0.680077 0 -12.7197 
746 1 746 1.11879 0.720131 0 -12.7755 
747 1 747 1.11875 0.760186 0 -12.383 
748 1 748 1.11872 0.800234 0 -11.0906 
749 1 749 1.1187 0.840271 0 -9.94734 
750 1 750 1.1187 0.880306 0 -9.36698 
751 1 751 1.1187 0.920333 0 -9.24132 
752 1 752 1.11869 0.960368 0 -10.3877 
753 1 753 1.11867 1.00041 0 -11.3052 
754 1 754 1.16 0 0 0 
755 1 755 1.1599 0.0399593 0 -4.22941 
756 1 756 1.15982 0.0799379 0 -5.40522 
757 1 757 1.15976 0.119918 0 -4.50645 
758 1 758 1.15967 0.159895 0 -2.85311 
759 1 759 1.15957 0.199867 0 -1.30172 
760 1 760 1.15946 0.23984 0 -0.74298 
761 1 761 1.15936 0.279816 0 -1.07553 
762 1 762 1.15926 0.319804 0 -1.99171 
763 1 763 1.15919 0.359799 0 -3.23357 
764 1 764 1.15912 0.399809 0 -4.58165 
765 1 765 1.15907 0.439826 0 -5.9402 
766 1 766 1.15902 0.479854 0 -7.34445 
767 1 767 1.15897 0.519888 0 -8.73872 
768 1 768 1.15892 0.55993 0 -10.2 
769 1 769 1.15887 0.59998 0 -11.5161 
770 1 770 1.15881 0.640033 0 -12.6091 
771 1 771 1.15875 0.680093 0 -13.2162 
772 1 772 1.1587 0.720149 0 -12.9957 
773 1 773 1.15866 0.760202 0 -12.3271 
774 1 774 1.15863 0.800248 0 -10.905 
775 1 775 1.15862 0.840281 0 -9.81668 
776 1 776 1.15863 0.880315 0 -9.74483 
777 1 777 1.15863 0.920344 0 -9.97683 
778 1 778 1.15861 0.960379 0 -10.7725 
779 1 779 1.15859 1.00042 0 -11.3646 
780 1 780 1.2 0 0 0 
781 1 781 1.19987 0.0399535 0 -3.52774 
782 1 782 1.19979 0.0799276 0 -5.10915 
783 1 783 1.19973 0.119907 0 -4.88197 
784 1 784 1.19965 0.159888 0 -3.21935 
785 1 785 1.19956 0.199863 0 -1.21912 
786 1 786 1.19945 0.239838 0 -0.160448 