ITEM: TIMESTEP
0
ITEM: NUMBER OF ATOMS
6875
ITEM: BOX BOUNDS sm sm sm
0 4
0 2
0 0
ITEM: ATOMS id type tag x y z damage s11 s22 s33 s12 s13 s23 vx T ienergy 
1 1 1 0.0199963 0.019999 0 0 -0.0324044 -0.0329731 -0.0209407 -0.0117469 0 0 -0.0798814 0 0 
2 1 2 0.0199937 0.0599962 0 0 -0.0579976 -0.0359254 -0.0300819 -0.0174544 0 0 -0.135101 0 0 
3 1 3 0.0199937 0.0999955 0 0 -0.0784537 -0.0465343 -0.0400448 -0.0238668 0 0 -0.114359 0 0 
4 1 4 0.0199943 0.139993 0 0 -0.0924856 -0.0472569 -0.0447768 -0.0274678 0 0 0.0375918 0 0 
5 1 5 0.0199929 0.179994 0 0 -0.0979804 -0.0509511 -0.0477191 -0.0277809 0 0 0.0922835 0 0 
6 1 6 0.0199927 0.219992 0 0 -0.107341 -0.0534517 -0.0515205 -0.0343626 0 0 0.223216 0 0 
7 1 7 0.0199906 0.259993 0 0 -0.132104 -0.0685568 -0.0643058 -0.0366224 0 0 0.00845122 0 0 
8 1 8 0.0199893 0.299991 0 0 -0.162992 -0.0841691 -0.0792196 -0.0440077 0 0 0.00646129 0 0 
9 1 9 0.0199861 0.339991 0 0 -0.19448 -0.100563 -0.0945822 -0.0467228 0 0 -0.173939 0 0 
10 1 10 0.0199841 0.379989 0 0 -0.221179 -0.111156 -0.106548 -0.0540304 0 0 -0.234556 0 0 
11 1 11 0.01998 0.419989 0 0 -0.248216 -0.12101 -0.118389 -0.0558358 0 0 -0.195786 0 0 
12 1 12 0.0199752 0.459989 0 0 -0.273248 -0.121892 -0.12671 -0.0572852 0 0 -0.231088 0 0 
13 1 13 0.0199676 0.499992 0 0 -0.295985 -0.127463 -0.1358 -0.0466123 0 0 -0.41668 0 0 
14 1 14 0.019964 0.539994 0 0 -0.311366 -0.122183 -0.139046 -0.0373302 0 0 -0.28083 0 0 
15 1 15 0.0199604 0.579998 0 0 -0.32818 -0.133269 -0.148008 -0.0160397 0 0 0.136042 0 0 
16 1 16 0.0199541 0.619999 0 0 -0.339842 -0.137415 -0.153086 -0.00565296 0 0 0.356125 0 0 
17 1 17 0.0199403 0.660002 0 0 -0.348295 -0.150876 -0.160126 0.0142484 0 0 -0.503175 0 0 
18 1 18 0.0199339 0.700003 0 0 -0.354286 -0.151304 -0.162189 0.0156508 0 0 -1.20622 0 0 
19 1 19 0.0199354 0.740006 0 0 -0.368006 -0.164224 -0.170747 0.0324344 0 0 -1.52101 0 0 
20 1 20 0.0199464 0.780007 0 0 -0.368443 -0.153078 -0.167306 0.0353927 0 0 -1.23053 0 0 
21 1 21 0.0199508 0.820012 0 0 -0.385363 -0.164388 -0.176374 0.0539501 0 0 -1.45158 0 0 
22 1 22 0.0199585 0.860015 0 0 -0.378867 -0.144993 -0.168055 0.0690372 0 0 -1.54913 0 0 
23 1 23 0.0199605 0.900023 0 0 -0.406097 -0.153489 -0.179533 0.0890384 0 0 -0.854144 0 0 
24 1 24 0.0199653 0.940027 0 0 -0.428097 -0.1598 -0.188641 0.122413 0 0 -0.652402 0 0 
25 1 25 0.0199496 0.980047 0 0 -0.578002 -0.121627 -0.234537 0.118203 0 0 -0.423625 0 0 
26 1 26 0.0599982 0.019997 0 0 -0.0363022 -0.059517 -0.0306952 -0.0166524 0 0 -0.0194508 0 0 
27 1 27 0.0599946 0.0599898 0 0 -0.0581283 -0.0597593 -0.0377692 -0.0195249 0 0 -0.0748777 0 0 
28 1 28 0.0599877 0.0999861 0 0 -0.08066 -0.0641323 -0.0463915 -0.025364 0 0 -0.16224 0 0 
29 1 29 0.0599843 0.139982 0 0 -0.0928254 -0.0589478 -0.048627 -0.0289813 0 0 0.153467 0 0 
30 1 30 0.0599821 0.17998 0 0 -0.113489 -0.0690054 -0.0584833 -0.028864 0 0 0.157682 0 0 
31 1 31 0.0599807 0.219977 0 0 -0.133561 -0.0767807 -0.0674159 -0.0416873 0 0 0.257405 0 0 
32 1 32 0.0599753 0.259976 0 0 -0.153382 -0.0842437 -0.0761683 -0.0426182 0 0 -0.185901 0 0 
33 1 33 0.0599717 0.299972 0 0 -0.174524 -0.102255 -0.0887267 -0.0486272 0 0 0.00346589 0 0 
34 1 34 0.0599661 0.33997 0 0 -0.191788 -0.1043 -0.0949233 -0.0461902 0 0 -0.233874 0 0 
35 1 35 0.0599626 0.379967 0 0 -0.220304 -0.118801 -0.108726 -0.0487466 0 0 -0.356123 0 0 
36 1 36 0.0599575 0.419966 0 0 -0.247701 -0.115787 -0.11655 -0.0456705 0 0 -0.367894 0 0 
37 1 37 0.0599556 0.459967 0 0 -0.275301 -0.112033 -0.124209 -0.0436063 0 0 -0.312826 0 0 
38 1 38 0.0599539 0.499972 0 0 -0.304584 -0.103177 -0.130768 -0.0329949 0 0 0.139147 0 0 
39 1 39 0.0599531 0.539979 0 0 -0.329483 -0.101659 -0.138276 -0.0258013 0 0 0.396092 0 0 
40 1 40 0.059951 0.579989 0 0 -0.340431 -0.0970866 -0.140323 -0.00926219 0 0 0.0217302 0 0 
41 1 41 0.0599571 0.62 0 0 -0.347227 -0.111989 -0.147293 -0.00284433 0 0 -0.0498202 0 0 
42 1 42 0.0599676 0.66001 0 0 -0.354834 -0.115709 -0.150929 0.013 0 0 0.465586 0 0 
43 1 43 0.0599748 0.700017 0 0 -0.370029 -0.141396 -0.164063 0.0147023 0 0 1.19274 0 0 
44 1 44 0.0599679 0.740023 0 0 -0.375159 -0.128671 -0.161622 0.0281904 0 0 0.96736 0 0 
45 1 45 0.0599568 0.780031 0 0 -0.395418 -0.1397 -0.171674 0.0367438 0 0 0.43403 0 0 
46 1 46 0.0599458 0.82004 0 0 -0.399759 -0.116864 -0.165729 0.0500758 0 0 0.517038 0 0 
47 1 47 0.0599374 0.860052 0 0 -0.432696 -0.122541 -0.178143 0.0690139 0 0 0.0490806 0 0 
48 1 48 0.0599272 0.900067 0 0 -0.422476 -0.0883549 -0.163864 0.078026 0 0 0.0179867 0 0 
49 1 49 0.0599134 0.94009 0 0 -0.49575 -0.0686616 -0.181089 0.10145 0 0 -0.200355 0 0 
50 1 50 0.0598803 0.980122 0 0 -0.443453 0.0299991 -0.132606 0.0130018 0 0 0.768594 0 0 
51 1 51 0.0999934 0.0199955 0 0 -0.0433324 -0.0796803 -0.0394279 -0.0223267 0 0 -0.200361 0 0 
52 1 52 0.0999835 0.0599861 0 0 -0.0614426 -0.0812377 -0.0457244 -0.026462 0 0 -0.209504 0 0 
53 1 53 0.0999776 0.0999792 0 0 -0.0868024 -0.0820139 -0.0540955 -0.0273022 0 0 -0.0617742 0 0 
54 1 54 0.0999723 0.139973 0 0 -0.112333 -0.0838339 -0.0628668 -0.0308218 0 0 0.0543159 0 0 
55 1 55 0.0999662 0.179969 0 0 -0.13954 -0.0925638 -0.0743987 -0.0306303 0 0 -0.241194 0 0 
56 1 56 0.0999609 0.219964 0 0 -0.164663 -0.103937 -0.0861085 -0.0406806 0 0 0.0705818 0 0 
57 1 57 0.099954 0.259961 0 0 -0.175273 -0.0969567 -0.0872746 -0.0407085 0 0 -0.210171 0 0 
58 1 58 0.0999474 0.299958 0 0 -0.20063 -0.119697 -0.102706 -0.0458002 0 0 -0.155264 0 0 
59 1 59 0.0999388 0.339956 0 0 -0.209676 -0.106753 -0.101456 -0.0435864 0 0 -0.630819 0 0 
60 1 60 0.0999296 0.379955 0 0 -0.233654 -0.118565 -0.11294 -0.0448624 0 0 -0.79953 0 0 
61 1 61 0.0999177 0.419956 0 0 -0.249015 -0.100754 -0.112151 -0.0423516 0 0 -0.575691 0 0 
62 1 62 0.0999032 0.45996 0 0 -0.277474 -0.101009 -0.12137 -0.0381969 0 0 -0.517779 0 0 
63 1 63 0.0998873 0.499967 0 0 -0.294401 -0.078108 -0.119453 -0.0324943 0 0 -0.305628 0 0 
64 1 64 0.0998751 0.539978 0 0 -0.32149 -0.0838715 -0.129999 -0.0212112 0 0 -0.257477 0 0 
65 1 65 0.0998677 0.579989 0 0 -0.337541 -0.072659 -0.13155 -0.00967784 0 0 0.29316 0 0 
66 1 66 0.0998585 0.620001 0 0 -0.363063 -0.0995085 -0.148371 0.00207722 0 0 0.319477 0 0 
67 1 67 0.0998452 0.660012 0 0 -0.353976 -0.0861573 -0.141163 0.0087728 0 0 -0.385886 0 0 
68 1 68 0.0998361 0.700023 0 0 -0.36747 -0.110076 -0.153181 0.0174689 0 0 -1.43215 0 0 
69 1 69 0.0998363 0.740035 0 0 -0.370328 -0.0958414 -0.149527 0.0210497 0 0 -1.44575 0 0 
70 1 70 0.0998407 0.780048 0 0 -0.396074 -0.101197 -0.159519 0.0335396 0 0 -1.34682 0 0 
71 1 71 0.0998423 0.820064 0 0 -0.409953 -0.0866231 -0.159293 0.0405509 0 0 -1.40816 0 0 
72 1 72 0.0998414 0.860083 0 0 -0.415056 -0.0641267 -0.153716 0.0536229 0 0 -1.63111 0 0 
73 1 73 0.0998385 0.900108 0 0 -0.458742 -0.0495251 -0.163048 0.062508 0 0 -1.36334 0 0 
74 1 74 0.0998258 0.940138 0 0 -0.445586 -0.00504275 -0.144537 0.0319627 0 0 -1.10894 0 0 
75 1 75 0.0998003 0.980169 0 0 -0.404637 -0.0160489 -0.134926 0.0158704 0 0 -0.202333 0 0 
76 1 76 0.139996 0.0199945 0 0 -0.0551165 -0.098339 -0.0491859 -0.0249393 0 0 -0.161278 0 0 
77 1 77 0.139986 0.0599829 0 0 -0.0712943 -0.0939586 -0.0529611 -0.0287895 0 0 -0.214064 0 0 
78 1 78 0.139972 0.0999749 0 0 -0.0966207 -0.0971684 -0.0621149 -0.0293976 0 0 -0.323317 0 0 
79 1 79 0.13996 0.139966 0 0 -0.133131 -0.109806 -0.0778757 -0.0314715 0 0 -0.287446 0 0 
80 1 80 0.139952 0.17996 0 0 -0.16076 -0.109586 -0.0866676 -0.0286545 0 0 -0.459171 0 0 
81 1 81 0.139944 0.219954 0 0 -0.182758 -0.119556 -0.0969252 -0.0339915 0 0 -0.137435 0 0 
82 1 82 0.139934 0.25995 0 0 -0.1942 -0.112541 -0.0983474 -0.0339141 0 0 -0.507516 0 0 
83 1 83 0.139925 0.299946 0 0 -0.216442 -0.125365 -0.109604 -0.0394046 0 0 -0.509683 0 0 
84 1 84 0.139915 0.339944 0 0 -0.223381 -0.108263 -0.106344 -0.0358351 0 0 -0.889425 0 0 
85 1 85 0.139905 0.379943 0 0 -0.242592 -0.110398 -0.113191 -0.0410175 0 0 -0.927231 0 0 
86 1 86 0.139893 0.419946 0 0 -0.2526 -0.0888045 -0.109467 -0.0391798 0 0 -0.69534 0 0 
87 1 87 0.139882 0.459952 0 0 -0.272812 -0.0854216 -0.11487 -0.0386607 0 0 -0.371798 0 0 
88 1 88 0.139871 0.499961 0 0 -0.296356 -0.0707881 -0.117731 -0.0343254 0 0 0.478332 0 0 
89 1 89 0.139862 0.539972 0 0 -0.324541 -0.0756544 -0.128341 -0.0235411 0 0 0.625717 0 0 
90 1 90 0.139854 0.579987 0 0 -0.334944 -0.065092 -0.128287 -0.0134606 0 0 0.440295 0 0 
91 1 91 0.139857 0.620003 0 0 -0.35291 -0.0755119 -0.137405 -0.00255709 0 0 0.0244044 0 0 
92 1 92 0.139866 0.66002 0 0 -0.375781 -0.0809594 -0.146498 0.00400871 0 0 0.684968 0 0 
93 1 93 0.139871 0.700035 0 0 -0.403638 -0.0921307 -0.159038 0.00396016 0 0 1.2862 0 0 
94 1 94 0.13986 0.740052 0 0 -0.41984 -0.0954517 -0.16531 0.010553 0 0 1.15215 0 0 
95 1 95 0.139843 0.780069 0 0 -0.424646 -0.0765528 -0.160785 0.012643 0 0 0.939329 0 0 
96 1 96 0.139825 0.820091 0 0 -0.446965 -0.0757763 -0.167702 0.0260296 0 0 0.787386 0 0 
97 1 97 0.13981 0.860114 0 0 -0.464863 -0.0534962 -0.166295 0.031114 0 0 0.523041 0 0 
98 1 98 0.13979 0.900143 0 0 -0.455851 -0.0213871 -0.153079 0.023159 0 0 -0.0896916 0 0 
99 1 99 0.13977 0.940173 0 0 -0.446973 -0.0272645 -0.152132 0.0265041 0 0 -0.465899 0 0 
100 1 100 0.139746 0.980204 0 0 -0.420153 0.00241539 -0.133985 0.00399194 0 0 0.742338 0 0 
101 1 101 0.179991 0.0199944 0 0 -0.0562315 -0.102038 -0.0507159 -0.0294814 0 0 -0.164909 0 0 
102 1 102 0.179975 0.0599827 0 0 -0.0793881 -0.101684 -0.0580321 -0.034006 0 0 -0.217321 0 0 
103 1 103 0.17996 0.0999733 0 0 -0.1164 -0.112929 -0.0735174 -0.0360129 0 0 -0.370414 0 0 
104 1 104 0.179946 0.139963 0 0 -0.148333 -0.125796 -0.0878858 -0.0341783 0 0 -0.413155 0 0 
105 1 105 0.179932 0.179957 0 0 -0.165678 -0.116319 -0.0904064 -0.0282061 0 0 -0.715579 0 0 
106 1 106 0.179921 0.21995 0 0 -0.195544 -0.132657 -0.105228 -0.0316533 0 0 -0.588066 0 0 
107 1 107 0.179909 0.259945 0 0 -0.211081 -0.127374 -0.108522 -0.0323522 0 0 -0.920518 0 0 
108 1 108 0.179897 0.299941 0 0 -0.221515 -0.124277 -0.110884 -0.0354618 0 0 -0.859189 0 0 
109 1 109 0.179884 0.33994 0 0 -0.222404 -0.105371 -0.105106 -0.0336957 0 0 -1.12147 0 0 
110 1 110 0.17987 0.379941 0 0 -0.234786 -0.0970251 -0.106397 -0.0420695 0 0 -1.08452 0 0 
111 1 111 0.179851 0.419946 0 0 -0.24602 -0.0766287 -0.103449 -0.0414413 0 0 -0.82135 0 0 
112 1 112 0.179829 0.459953 0 0 -0.272356 -0.0780142 -0.112346 -0.0457717 0 0 -0.415336 0 0 
113 1 113 0.179803 0.499964 0 0 -0.286507 -0.0612714 -0.111516 -0.0429269 0 0 -0.0682561 0 0 
114 1 114 0.179784 0.539976 0 0 -0.308251 -0.0661955 -0.120075 -0.0307119 0 0 0.00867799 0 0 
115 1 115 0.17977 0.57999 0 0 -0.335752 -0.0601552 -0.126965 -0.0225272 0 0 0.711281 0 0 
116 1 116 0.179755 0.620004 0 0 -0.369108 -0.0725899 -0.141671 -0.00822588 0 0 0.60235 0 0 
117 1 117 0.179738 0.66002 0 0 -0.374481 -0.0615547 -0.139851 -0.00305591 0 0 -0.128587 0 0 
118 1 118 0.179725 0.700039 0 0 -0.380762 -0.0609813 -0.141689 -0.000386188 0 0 -0.977304 0 0 
119 1 119 0.17972 0.740059 0 0 -0.401357 -0.0527212 -0.145648 0.000560124 0 0 -0.868824 0 0 
120 1 120 0.179718 0.780082 0 0 -0.433549 -0.0631292 -0.159333 0.00565796 0 0 -0.574987 0 0 
121 1 121 0.179713 0.820107 0 0 -0.434923 -0.03395 -0.150398 0.0110671 0 0 -0.566127 0 0 
122 1 122 0.179705 0.860136 0 0 -0.448857 -0.0358527 -0.155482 0.0143993 0 0 -0.899518 0 0 
123 1 123 0.179696 0.900166 0 0 -0.449626 -0.0178321 -0.149939 0.0149515 0 0 -0.826237 0 0 
124 1 124 0.179685 0.940198 0 0 -0.435972 -0.00116928 -0.140226 0.0129021 0 0 -0.82023 0 0 
125 1 125 0.179669 0.98023 0 0 -0.400381 -0.00499205 -0.130023 0.00359614 0 0 -0.121942 0 0 
126 1 126 0.219993 0.0199942 0 0 -0.0657531 -0.106953 -0.0553461 -0.0376292 0 0 0.0273851 0 0 
127 1 127 0.219976 0.059982 0 0 -0.0941616 -0.111463 -0.0659024 -0.0439216 0 0 -0.00163405 0 0 
128 1 128 0.219953 0.099972 0 0 -0.118999 -0.117568 -0.0758333 -0.0454549 0 0 -0.493237 0 0 
129 1 129 0.219932 0.139962 0 0 -0.146469 -0.123386 -0.0865132 -0.039953 0 0 -0.541797 0 0 
130 1 130 0.219916 0.179955 0 0 -0.174017 -0.126744 -0.0964267 -0.0340487 0 0 -0.976035 0 0 
131 1 131 0.219901 0.219947 0 0 -0.198158 -0.139147 -0.108149 -0.0338198 0 0 -1.09076 0 0 
132 1 132 0.219887 0.259941 0 0 -0.199143 -0.125555 -0.104102 -0.0303947 0 0 -1.25127 0 0 
133 1 133 0.219874 0.299937 0 0 -0.2047 -0.116007 -0.102829 -0.0348494 0 0 -1.20344 0 0 
134 1 134 0.21986 0.339935 0 0 -0.217661 -0.103977 -0.103136 -0.0356335 0 0 -1.41025 0 0 
135 1 135 0.219844 0.379936 0 0 -0.235396 -0.0887007 -0.103924 -0.0477802 0 0 -1.14649 0 0 
136 1 136 0.219825 0.419942 0 0 -0.247813 -0.0727137 -0.102774 -0.0443297 0 0 -0.940357 0 0 
137 1 137 0.219807 0.459949 0 0 -0.263313 -0.0692361 -0.106633 -0.0524244 0 0 -0.206786 0 0 
138 1 138 0.219788 0.499959 0 0 -0.285476 -0.0603646 -0.110901 -0.0478526 0 0 0.651801 0 0 
139 1 139 0.219771 0.539971 0 0 -0.322899 -0.0750221 -0.127617 -0.0405261 0 0 0.826829 0 0 
140 1 140 0.219755 0.579986 0 0 -0.341768 -0.062498 -0.129654 -0.0345316 0 0 0.707678 0 0 
141 1 141 0.21975 0.620004 0 0 -0.366663 -0.0641865 -0.138191 -0.0221677 0 0 0.216967 0 0 
142 1 142 0.219753 0.660025 0 0 -0.409475 -0.063816 -0.151818 -0.01991 0 0 1.07678 0 0 
143 1 143 0.219751 0.700047 0 0 -0.451996 -0.070481 -0.167619 -0.0153163 0 0 1.71696 0 0 
144 1 144 0.219735 0.740072 0 0 -0.455836 -0.0559307 -0.164178 -0.0158965 0 0 1.97268 0 0 
145 1 145 0.219712 0.780097 0 0 -0.458971 -0.0503102 -0.163378 -0.0104951 0 0 1.71937 0 0 
146 1 146 0.219689 0.820126 0 0 -0.470299 -0.0378122 -0.162999 -0.00599492 0 0 1.74153 0 0 
147 1 147 0.219669 0.860155 0 0 -0.474855 -0.0319494 -0.162581 -0.000372328 0 0 1.39462 0 0 
148 1 148 0.219647 0.900187 0 0 -0.461349 -0.021136 -0.154765 0.00341913 0 0 0.61759 0 0 
149 1 149 0.219629 0.940218 0 0 -0.443583 -0.00628045 -0.144312 0.00768029 0 0 -0.0358523 0 0 
150 1 150 0.219613 0.980251 0 0 -0.440128 -0.0104143 -0.144529 -0.000158839 0 0 0.445203 0 0 
151 1 151 0.259987 0.0199939 0 0 -0.0686642 -0.113826 -0.0584877 -0.0494285 0 0 -0.0929535 0 0 
152 1 152 0.259962 0.059981 0 0 -0.100303 -0.117489 -0.0698039 -0.0553063 0 0 0.0161542 0 0 
153 1 153 0.259939 0.0999714 0 0 -0.127832 -0.11847 -0.0789524 -0.0545615 0 0 -0.326204 0 0 
154 1 154 0.259918 0.139962 0 0 -0.147575 -0.123182 -0.0867985 -0.0479902 0 0 -0.501838 0 0 
155 1 155 0.259896 0.179954 0 0 -0.163146 -0.127437 -0.0931594 -0.0429064 0 0 -1.13558 0 0 
156 1 156 0.259879 0.219946 0 0 -0.175134 -0.128447 -0.0973245 -0.037761 0 0 -1.24017 0 0 
157 1 157 0.259864 0.25994 0 0 -0.180517 -0.118902 -0.095987 -0.0334795 0 0 -1.30752 0 0 
158 1 158 0.259849 0.299935 0 0 -0.197452 -0.116948 -0.1008 -0.0427353 0 0 -1.40271 0 0 
159 1 159 0.25983 0.339934 0 0 -0.212951 -0.0999583 -0.100327 -0.0435808 0 0 -1.55614 0 0 
160 1 160 0.259808 0.379936 0 0 -0.226216 -0.0822409 -0.0989025 -0.0572294 0 0 -1.21193 0 0 
161 1 161 0.259782 0.419942 0 0 -0.246462 -0.0679373 -0.10081 -0.055009 0 0 -0.989467 0 0 
162 1 162 0.259753 0.459951 0 0 -0.281423 -0.0765176 -0.11479 -0.0656639 0 0 -0.327836 0 0 
163 1 163 0.25972 0.499962 0 0 -0.295253 -0.0663257 -0.11596 -0.0603274 0 0 -0.109669 0 0 
164 1 164 0.259692 0.539973 0 0 -0.320642 -0.0766257 -0.127412 -0.0556889 0 0 0.0534954 0 0 
165 1 165 0.259669 0.579987 0 0 -0.357025 -0.0691986 -0.136706 -0.0474512 0 0 0.781979 0 0 
166 1 166 0.259645 0.620003 0 0 -0.397653 -0.0710653 -0.150352 -0.0317443 0 0 0.577698 0 0 
167 1 167 0.259618 0.660023 0 0 -0.404977 -0.0476035 -0.145166 -0.0275526 0 0 0.172267 0 0 
168 1 168 0.259597 0.700047 0 0 -0.406021 -0.0286364 -0.139409 -0.0185789 0 0 -0.650911 0 0 
169 1 169 0.259587 0.740074 0 0 -0.428392 -0.0227019 -0.144688 -0.0194044 0 0 -0.234367 0 0 
170 1 170 0.25958 0.780104 0 0 -0.450062 -0.0299936 -0.15399 -0.0137145 0 0 0.132116 0 0 
171 1 171 0.259572 0.820135 0 0 -0.437833 -0.00993968 -0.143617 -0.0123238 0 0 0.305715 0 0 
172 1 172 0.259561 0.860167 0 0 -0.439193 -0.0102657 -0.144164 -0.00592498 0 0 -0.0602223 0 0 
173 1 173 0.259553 0.900199 0 0 -0.441861 -0.00412928 -0.143045 -0.00396742 0 0 0.138689 0 0 
174 1 174 0.259545 0.940233 0 0 -0.435741 0.00197462 -0.139143 0.00420242 0 0 -0.145828 0 0 
175 1 175 0.259533 0.980266 0 0 -0.409169 0.00603198 -0.129305 0.001113 0 0 -0.400694 0 0 
176 1 176 0.299988 0.0199926 0 0 -0.0849583 -0.132024 -0.0695517 -0.0623739 0 0 -0.0564833 0 0 
177 1 177 0.299961 0.059979 0 0 -0.110236 -0.123526 -0.0749296 -0.0628835 0 0 0.126677 0 0 
178 1 178 0.299931 0.0999692 0 0 -0.118467 -0.113153 -0.0742407 -0.0625921 0 0 -0.322866 0 0 
179 1 179 0.299904 0.13996 0 0 -0.137699 -0.122159 -0.0832997 -0.0565062 0 0 -0.509201 0 0 
180 1 180 0.299883 0.179951 0 0 -0.154768 -0.128349 -0.0907638 -0.0520726 0 0 -0.964894 0 0 
181 1 181 0.299864 0.219942 0 0 -0.160892 -0.118583 -0.0895909 -0.0449193 0 0 -1.1974 0 0 
182 1 182 0.299847 0.259936 0 0 -0.174544 -0.121048 -0.0947598 -0.0426119 0 0 -1.45364 0 0 
183 1 183 0.299828 0.299931 0 0 -0.189144 -0.111915 -0.0965154 -0.0533941 0 0 -1.53381 0 0 
184 1 184 0.299807 0.33993 0 0 -0.208371 -0.0918715 -0.0962551 -0.0537824 0 0 -1.46485 0 0 
185 1 185 0.299782 0.379932 0 0 -0.243443 -0.0885108 -0.106435 -0.065342 0 0 -1.05182 0 0 
186 1 186 0.299755 0.419938 0 0 -0.269584 -0.0776685 -0.111351 -0.0623565 0 0 -0.943571 0 0 
187 1 187 0.299728 0.459946 0 0 -0.296463 -0.0818094 -0.121316 -0.0714414 0 0 -0.2624 0 0 
188 1 188 0.299702 0.499956 0 0 -0.325699 -0.085091 -0.13176 -0.063284 0 0 0.224355 0 0 
189 1 189 0.299676 0.539967 0 0 -0.361275 -0.0948786 -0.146322 -0.0639885 0 0 0.622914 0 0 
190 1 190 0.299651 0.579982 0 0 -0.374871 -0.0812125 -0.146294 -0.0574426 0 0 0.441195 0 0 
191 1 191 0.299635 0.620001 0 0 -0.391639 -0.0625742 -0.145692 -0.0494047 0 0 0.0837555 0 0 
192 1 192 0.299628 0.660025 0 0 -0.442952 -0.0557868 -0.159992 -0.0488757 0 0 1.2521 0 0 
193 1 193 0.299618 0.700051 0 0 -0.483068 -0.0509352 -0.171321 -0.0371428 0 0 1.93915 0 0 
194 1 194 0.299597 0.740082 0 0 -0.475817 -0.0296203 -0.162144 -0.0390912 0 0 2.57291 0 0 
195 1 195 0.29957 0.780113 0 0 -0.467757 -0.0241182 -0.157788 -0.0289313 0 0 2.19503 0 0 
196 1 196 0.299546 0.820145 0 0 -0.471651 -0.0145322 -0.155954 -0.0267861 0 0 2.39125 0 0 
197 1 197 0.299524 0.860178 0 0 -0.47369 -0.0191087 -0.158087 -0.015661 0 0 1.96684 0 0 
198 1 198 0.299504 0.900211 0 0 -0.454259 -0.00431525 -0.14709 -0.0101216 0 0 1.44962 0 0 
199 1 199 0.299488 0.940244 0 0 -0.44548 0.00137492 -0.142463 -0.00370898 0 0 0.631253 0 0 
200 1 200 0.299475 0.980279 0 0 -0.451105 -0.00694343 -0.146936 -0.00297453 0 0 0.322757 0 0 
201 1 201 0.33998 0.019992 0 0 -0.0799852 -0.139309 -0.0702928 -0.0744152 0 0 -0.210713 0 0 
202 1 202 0.339947 0.0599775 0 0 -0.0994029 -0.122126 -0.0710059 -0.069653 0 0 -0.00665334 0 0 
203 1 203 0.339918 0.0999667 0 0 -0.119895 -0.122269 -0.0776243 -0.0696355 0 0 -0.203846 0 0 
204 1 204 0.339892 0.139956 0 0 -0.131251 -0.124086 -0.0818496 -0.064603 0 0 -0.297619 0 0 
205 1 205 0.339867 0.179947 0 0 -0.139879 -0.124846 -0.0848639 -0.0589229 0 0 -0.823466 0 0 
206 1 206 0.339845 0.219938 0 0 -0.149162 -0.113716 -0.0842692 -0.0543285 0 0 -1.13562 0 0 
207 1 207 0.339826 0.259932 0 0 -0.174113 -0.122124 -0.0949691 -0.0531957 0 0 -1.35906 0 0 
208 1 208 0.339804 0.299927 0 0 -0.195255 -0.108417 -0.0973532 -0.0656386 0 0 -1.32837 0 0 
209 1 209 0.339776 0.339927 0 0 -0.22364 -0.093588 -0.101705 -0.069807 0 0 -1.22554 0 0 
210 1 210 0.339743 0.37993 0 0 -0.260325 -0.093615 -0.113487 -0.0834839 0 0 -1.0364 0 0 
211 1 211 0.339707 0.419938 0 0 -0.295789 -0.088052 -0.123091 -0.0790255 0 0 -1.02096 0 0 
212 1 212 0.339669 0.459947 0 0 -0.330721 -0.0952327 -0.136618 -0.0855073 0 0 -0.493825 0 0 
213 1 213 0.339629 0.499958 0 0 -0.345549 -0.0978522 -0.142226 -0.074677 0 0 -0.577953 0 0 
214 1 214 0.339593 0.539969 0 0 -0.361995 -0.0950034 -0.146589 -0.0790719 0 0 -0.207111 0 0 
215 1 215 0.339559 0.579982 0 0 -0.404584 -0.0956539 -0.160474 -0.0683784 0 0 0.313588 0 0 
216 1 216 0.339525 0.619998 0 0 -0.439932 -0.0826993 -0.167671 -0.0576151 0 0 0.417172 0 0 
217 1 217 0.339488 0.66002 0 0 -0.429888 -0.0410489 -0.151063 -0.0514055 0 0 0.311281 0 0 
218 1 218 0.339459 0.700047 0 0 -0.41453 -0.0114913 -0.136639 -0.0338629 0 0 -0.561805 0 0 
219 1 219 0.339445 0.740079 0 0 -0.424677 0.00420288 -0.134857 -0.0352869 0 0 0.254819 0 0 
220 1 220 0.339437 0.780112 0 0 -0.43717 0.00264555 -0.139369 -0.0261428 0 0 0.540153 0 0 
221 1 221 0.339428 0.820147 0 0 -0.422172 0.0152506 -0.130502 -0.0285248 0 0 0.759972 0 0 
222 1 222 0.339417 0.860182 0 0 -0.417737 0.0165779 -0.128662 -0.0191416 0 0 0.416493 0 0 
223 1 223 0.33941 0.900217 0 0 -0.43061 0.0134474 -0.133797 -0.0187327 0 0 0.981832 0 0 
224 1 224 0.339403 0.940252 0 0 -0.435512 0.00675138 -0.137536 -0.00698574 0 0 0.55652 0 0 
225 1 225 0.339394 0.980286 0 0 -0.40679 0.0204442 -0.12391 -0.00565578 0 0 -0.167009 0 0 
226 1 226 0.379982 0.0199915 0 0 -0.0856719 -0.147195 -0.0746441 -0.0837202 0 0 -0.179878 0 0 
227 1 227 0.379947 0.0599757 0 0 -0.101948 -0.13215 -0.0750359 -0.0753575 0 0 -0.0318567 0 0 
228 1 228 0.379912 0.099963 0 0 -0.112858 -0.132841 -0.0787582 -0.0730326 0 0 -0.323989 0 0 
229 1 229 0.379881 0.139951 0 0 -0.122334 -0.12667 -0.0798187 -0.069578 0 0 -0.236934 0 0 
230 1 230 0.379856 0.17994 0 0 -0.140509 -0.129654 -0.0866103 -0.0656133 0 0 -0.588401 0 0 
231 1 231 0.379832 0.219931 0 0 -0.1539 -0.121586 -0.0883183 -0.0642268 0 0 -0.904205 0 0 
232 1 232 0.379809 0.259924 0 0 -0.179205 -0.120307 -0.0960253 -0.0659057 0 0 -1.11375 0 0 
233 1 233 0.379782 0.29992 0 0 -0.206275 -0.105948 -0.100102 -0.0796263 0 0 -1.15176 0 0 
234 1 234 0.379749 0.339921 0 0 -0.245677 -0.101357 -0.111276 -0.0864999 0 0 -1.1469 0 0 
235 1 235 0.379711 0.379924 0 0 -0.293862 -0.105145 -0.127957 -0.0977818 0 0 -0.883369 0 0 
236 1 236 0.379673 0.419931 0 0 -0.326216 -0.0980356 -0.136064 -0.0897209 0 0 -0.783655 0 0 
237 1 237 0.379637 0.45994 0 0 -0.355066 -0.105176 -0.147623 -0.0921096 0 0 -0.33783 0 0 
238 1 238 0.379604 0.49995 0 0 -0.390816 -0.118517 -0.163395 -0.0793303 0 0 -0.117458 0 0 
239 1 239 0.379571 0.539962 0 0 -0.416681 -0.116577 -0.17108 -0.0839771 0 0 0.367278 0 0 
240 1 240 0.379537 0.579977 0 0 -0.411807 -0.0971187 -0.163263 -0.0738219 0 0 0.0122653 0 0 
241 1 241 0.379511 0.619997 0 0 -0.412556 -0.0661295 -0.153555 -0.0712001 0 0 0.027802 0 0 
242 1 242 0.379493 0.660022 0 0 -0.456116 -0.0511531 -0.162735 -0.066169 0 0 1.34013 0 0 
243 1 243 0.379477 0.70005 0 0 -0.496299 -0.0459135 -0.173962 -0.0494573 0 0 2.14335 0 0 
244 1 244 0.379453 0.740083 0 0 -0.487367 -0.0206063 -0.162958 -0.0479915 0 0 2.949 0 0 
245 1 245 0.379425 0.780116 0 0 -0.468083 -0.00512905 -0.151795 -0.0353828 0 0 2.38614 0 0 
246 1 246 0.379402 0.820152 0 0 -0.473205 -0.00473306 -0.153312 -0.0382132 0 0 2.7442 0 0 
247 1 247 0.379381 0.860186 0 0 -0.474325 -0.00614691 -0.154136 -0.0261857 0 0 2.26848 0 0 
248 1 248 0.379361 0.900221 0 0 -0.453274 0.00663572 -0.143268 -0.0276638 0 0 2.10761 0 0 
249 1 249 0.379345 0.940256 0 0 -0.451025 0.000346907 -0.144578 -0.0165864 0 0 1.25517 0 0 
250 1 250 0.379336 0.98029 0 0 -0.457937 0.000859973 -0.146623 -0.0124484 0 0 1.03136 0 0 
251 1 251 0.419976 0.0199915 0 0 -0.0727976 -0.142889 -0.0691327 -0.0909234 0 0 -0.380797 0 0 
252 1 252 0.419935 0.0599749 0 0 -0.0876501 -0.136033 -0.0716934 -0.0816537 0 0 -0.296943 0 0 
253 1 253 0.419902 0.0999601 0 0 -0.112006 -0.145505 -0.0825474 -0.0753738 0 0 -0.320011 0 0 
254 1 254 0.419871 0.139946 0 0 -0.122421 -0.137205 -0.0832278 -0.073928 0 0 -0.125798 0 0 
255 1 255 0.419841 0.179934 0 0 -0.142103 -0.139354 -0.0902358 -0.0720508 0 0 -0.507406 0 0 
256 1 256 0.419814 0.219924 0 0 -0.165072 -0.129905 -0.0945745 -0.0724655 0 0 -0.874449 0 0 
257 1 257 0.419786 0.259918 0 0 -0.195012 -0.124405 -0.102416 -0.0761921 0 0 -1.09087 0 0 
258 1 258 0.419753 0.299915 0 0 -0.226822 -0.10845 -0.107504 -0.0936237 0 0 -1.02405 0 0 
259 1 259 0.419712 0.339917 0 0 -0.272643 -0.112252 -0.123433 -0.103117 0 0 -0.93195 0 0 
260 1 260 0.419666 0.379921 0 0 -0.3039 -0.102012 -0.130177 -0.111977 0 0 -0.609539 0 0 
261 1 261 0.419618 0.41993 0 0 -0.340056 -0.103684 -0.142325 -0.104327 0 0 -0.593418 0 0 
262 1 262 0.41957 0.459939 0 0 -0.377688 -0.113241 -0.15748 -0.104866 0 0 -0.541426 0 0 
263 1 263 0.419524 0.499951 0 0 -0.392609 -0.114027 -0.162527 -0.0891385 0 0 -0.80418 0 0 
264 1 264 0.419481 0.539964 0 0 -0.39749 -0.0977252 -0.158857 -0.0920859 0 0 -0.41612 0 0 
265 1 265 0.41944 0.579979 0 0 -0.437146 -0.104122 -0.173652 -0.0777369 0 0 0.0936595 0 0 
266 1 266 0.419398 0.619996 0 0 -0.464024 -0.0838263 -0.175774 -0.072878 0 0 0.684033 0 0 
267 1 267 0.419351 0.66002 0 0 -0.43739 -0.0411354 -0.153502 -0.056638 0 0 0.42585 0 0 
268 1 268 0.419317 0.700047 0 0 -0.40374 -0.0035907 -0.130638 -0.0384416 0 0 -0.276474 0 0 
269 1 269 0.4193 0.740079 0 0 -0.411891 0.0146575 -0.127393 -0.0372976 0 0 0.651211 0 0 
270 1 270 0.419291 0.780113 0 0 -0.4303 0.0114209 -0.134348 -0.0269119 0 0 0.660224 0 0 
271 1 271 0.419283 0.820149 0 0 -0.419505 0.0193036 -0.12835 -0.0363201 0 0 1.00527 0 0 
272 1 272 0.419273 0.860184 0 0 -0.415311 0.0212213 -0.126399 -0.0277282 0 0 0.668224 0 0 
273 1 273 0.419266 0.90022 0 0 -0.436484 0.0147919 -0.13526 -0.0347611 0 0 1.58314 0 0 
274 1 274 0.419259 0.940255 0 0 -0.447567 -0.000444947 -0.143723 -0.0192485 0 0 1.24611 0 0 
275 1 275 0.419253 0.98029 0 0 -0.412413 0.0270659 -0.12359 -0.0166846 0 0 1.09923 0 0 
276 1 276 0.459979 0.0199912 0 0 -0.0792838 -0.147707 -0.0727607 -0.0961499 0 0 -0.377419 0 0 
277 1 277 0.459938 0.0599734 0 0 -0.0947534 -0.149757 -0.078375 -0.0879762 0 0 -0.319285 0 0 
278 1 278 0.459898 0.0999571 0 0 -0.107713 -0.153157 -0.083626 -0.0798841 0 0 -0.366283 0 0 
279 1 279 0.459863 0.139941 0 0 -0.125672 -0.149014 -0.0880613 -0.0795209 0 0 -0.185879 0 0 
280 1 280 0.45983 0.179928 0 0 -0.15334 -0.152122 -0.0979394 -0.0771739 0 0 -0.475508 0 0 
281 1 281 0.459799 0.219917 0 0 -0.175323 -0.136594 -0.10001 -0.079865 0 0 -0.688639 0 0 
282 1 282 0.459765 0.259911 0 0 -0.210064 -0.126486 -0.107914 -0.0854855 0 0 -0.897894 0 0 
283 1 283 0.459725 0.299908 0 0 -0.243689 -0.11226 -0.11414 -0.102409 0 0 -0.909332 0 0 
284 1 284 0.459679 0.33991 0 0 -0.276527 -0.10676 -0.122915 -0.109836 0 0 -0.835106 0 0 
285 1 285 0.459629 0.379916 0 0 -0.312075 -0.0993368 -0.131943 -0.115851 0 0 -0.480218 0 0 
286 1 286 0.459579 0.419924 0 0 -0.352782 -0.109897 -0.148405 -0.10721 0 0 -0.467688 0 0 
287 1 287 0.459534 0.459934 0 0 -0.375217 -0.105462 -0.15419 -0.101257 0 0 -0.24947 0 0 
288 1 288 0.459494 0.499946 0 0 -0.409749 -0.113955 -0.168014 -0.0843059 0 0 0.034872 0 0 
289 1 289 0.459455 0.53996 0 0 -0.434062 -0.105488 -0.173101 -0.087025 0 0 0.330757 0 0 
290 1 290 0.459414 0.579978 0 0 -0.424334 -0.0894409 -0.164818 -0.075087 0 0 -0.115345 0 0 
291 1 291 0.459381 0.619999 0 0 -0.412951 -0.0564063 -0.150555 -0.0788522 0 0 0.258418 0 0 
292 1 292 0.459357 0.660025 0 0 -0.455854 -0.0530369 -0.163254 -0.0664789 0 0 1.38806 0 0 
293 1 293 0.459336 0.700053 0 0 -0.504142 -0.0567115 -0.17995 -0.0541375 0 0 2.39043 0 0 
294 1 294 0.459308 0.740084 0 0 -0.495567 -0.0343059 -0.169992 -0.0492363 0 0 3.06109 0 0 
295 1 295 0.45928 0.780116 0 0 -0.473882 -0.0164998 -0.157312 -0.0392829 0 0 2.38398 0 0 
296 1 296 0.459256 0.82015 0 0 -0.489378 -0.01939 -0.163216 -0.0468953 0 0 2.8898 0 0 
297 1 297 0.459235 0.860183 0 0 -0.494239 -0.0204565 -0.16513 -0.0338541 0 0 2.40803 0 0 
298 1 298 0.459216 0.900218 0 0 -0.466622 -0.00200342 -0.150331 -0.0427406 0 0 2.6707 0 0 
299 1 299 0.4592 0.940252 0 0 -0.465375 -0.0104618 -0.152657 -0.0253336 0 0 2.00423 0 0 
300 1 300 0.459193 0.980287 0 0 -0.47355 -0.000485416 -0.152068 -0.0217615 0 0 2.58528 0 0 
301 1 301 0.499974 0.019991 0 0 -0.0715242 -0.147929 -0.0703437 -0.100607 0 0 -0.467259 0 0 
302 1 302 0.499928 0.0599728 0 0 -0.0878194 -0.152393 -0.0769976 -0.0934424 0 0 -0.521153 0 0 
303 1 303 0.499889 0.0999552 0 0 -0.115587 -0.164033 -0.0896437 -0.0830906 0 0 -0.483192 0 0 
304 1 304 0.499853 0.139938 0 0 -0.133837 -0.159202 -0.0939506 -0.0845321 0 0 -0.254594 0 0 
305 1 305 0.499815 0.179924 0 0 -0.161217 -0.15858 -0.10254 -0.0827533 0 0 -0.47463 0 0 
306 1 306 0.499778 0.219913 0 0 -0.190982 -0.143506 -0.107254 -0.0859777 0 0 -0.675859 0 0 
307 1 307 0.499738 0.259908 0 0 -0.219688 -0.123508 -0.110046 -0.0919673 0 0 -1.03201 0 0 
308 1 308 0.499692 0.299907 0 0 -0.251836 -0.108351 -0.115497 -0.106733 0 0 -0.929805 0 0 
309 1 309 0.499639 0.339911 0 0 -0.285776 -0.101589 -0.124221 -0.11235 0 0 -0.672014 0 0 
310 1 310 0.499581 0.379918 0 0 -0.309213 -0.0919952 -0.128663 -0.119233 0 0 -0.29909 0 0 
311 1 311 0.499523 0.419928 0 0 -0.343855 -0.103867 -0.1436 -0.110302 0 0 -0.327768 0 0 
312 1 312 0.499466 0.459939 0 0 -0.366989 -0.0914467 -0.147047 -0.10139 0 0 -0.31509 0 0 
313 1 313 0.499412 0.499953 0 0 -0.384602 -0.096896 -0.154457 -0.08607 0 0 -0.526777 0 0 
314 1 314 0.499363 0.539968 0 0 -0.389007 -0.0772033 -0.149543 -0.0878012 0 0 -0.378755 0 0 
315 1 315 0.499316 0.579986 0 0 -0.431226 -0.0846432 -0.165491 -0.0735474 0 0 0.174786 0 0 
316 1 316 0.499268 0.620005 0 0 -0.458221 -0.0765457 -0.171565 -0.0721302 0 0 0.926626 0 0 
317 1 317 0.499216 0.660028 0 0 -0.422689 -0.0474669 -0.15081 -0.0512428 0 0 0.497949 0 0 
318 1 318 0.499178 0.700053 0 0 -0.382938 -0.00981493 -0.125957 -0.0428894 0 0 0.0943576 0 0 
319 1 319 0.499156 0.740082 0 0 -0.405362 -0.00831944 -0.132674 -0.0362789 0 0 0.66762 0 0 
320 1 320 0.499147 0.780112 0 0 -0.435001 -0.0114572 -0.143205 -0.0313923 0 0 0.691486 0 0 
321 1 321 0.499136 0.820145 0 0 -0.430262 0.000914929 -0.137706 -0.0439037 0 0 1.27586 0 0 
322 1 322 0.499126 0.860178 0 0 -0.432456 0.000777891 -0.138462 -0.0318453 0 0 0.94018 0 0 
323 1 323 0.499119 0.900212 0 0 -0.457473 -0.000732612 -0.146981 -0.0447427 0 0 2.23136 0 0 
324 1 324 0.499111 0.940246 0 0 -0.471397 -0.0155306 -0.156215 -0.0236434 0 0 2.15596 0 0 
325 1 325 0.499107 0.980281 0 0 -0.436186 0.0190801 -0.133783 -0.0218771 0 0 2.89397 0 0 
326 1 326 0.539977 0.0199905 0 0 -0.084176 -0.158914 -0.0779257 -0.10412 0 0 -0.309401 0 0 
327 1 327 0.539931 0.0599715 0 0 -0.0990859 -0.159807 -0.0829926 -0.099343 0 0 -0.296647 0 0 