ITEM: TIMESTEP
0
ITEM: NUMBER OF ATOMS
7127
ITEM: BOX BOUNDS sm sm sm
0 4
0 2
0 0
ITEM: ATOMS id type tag x y z vx 
0 1 0 0 0 0 0 
1 1 1 0 0.04 0 0 
2 1 2 0 0.08 0 0 
3 1 3 0 0.12 0 0 
4 1 4 0 0.16 0 0 
5 1 5 0 0.2 0 0 
6 1 6 0 0.24 0 0 
7 1 7 0 0.28 0 0 
8 1 8 0 0.32 0 0 
9 1 9 0 0.36 0 0 
10 1 10 0 0.4 0 0 
11 1 11 0 0.44 0 0 
12 1 12 0 0.48 0 0 
13 1 13 0 0.52 0 0 
14 1 14 0 0.56 0 0 
15 1 15 0 0.6 0 0 
16 1 16 0 0.64 0 0 
17 1 17 0 0.68 0 0 
18 1 18 0 0.72 0 0 
19 1 19 0 0.76 0 0 
20 1 20 0 0.8 0 0 
21 1 21 0 0.84 0 0 
22 1 22 0 0.88 0 0 
23 1 23 0 0.92 0 0 
24 1 24 0 0.96 0 0 
25 1 25 0 1 0 0 
26 1 26 0.04 0 0 0 
27 1 27 0.0400037 0.0399988 0 -0.301476 
28 1 28 0.0400003 0.0799971 0 -0.572366 
29 1 29 0.0399976 0.119996 0 -0.668539 
30 1 30 0.0399946 0.160002 0 -0.725278 
31 1 31 0.0399992 0.200006 0 -0.865226 
32 1 32 0.0399949 0.240012 0 -0.899161 
33 1 33 0.0399951 0.28002 0 -0.766176 
34 1 34 0.0399941 0.320025 0 -0.498651 
35 1 35 0.0399978 0.360028 0 -0.448545 
36 1 36 0.039996 0.400023 0 -0.355066 
37 1 37 0.0399971 0.440017 0 -0.156524 
38 1 38 0.0399897 0.480016 0 -0.245388 
39 1 39 0.039992 0.520018 0 -0.419009 
40 1 40 0.0399892 0.560023 0 -0.512794 
41 1 41 0.0399988 0.600029 0 -0.907268 
42 1 42 0.0400037 0.640025 0 -1.1708 
43 1 43 0.0400143 0.680022 0 -1.49719 
44 1 44 0.040018 0.720007 0 -1.57188 
45 1 45 0.0400194 0.760002 0 -1.77459 
46 1 46 0.0400268 0.799992 0 -1.58432 
47 1 47 0.0400189 0.839989 0 -1.76014 
48 1 48 0.0400359 0.879979 0 -1.7804 
49 1 49 0.0400213 0.91998 0 -1.43905 
50 1 50 0.0400385 0.959961 0 -0.891183 
51 1 51 0.0400499 0.999947 0 0.114865 
52 1 52 0.08 0 0 0 
53 1 53 0.0800059 0.0399979 0 -0.372418 
54 1 54 0.0799988 0.079994 0 -0.867198 
55 1 55 0.0799918 0.119993 0 -1.33941 
56 1 56 0.0799849 0.159998 0 -1.60673 
57 1 57 0.0799875 0.200002 0 -1.65969 
58 1 58 0.0799786 0.240009 0 -1.49465 
59 1 59 0.0799782 0.280021 0 -1.40448 
60 1 60 0.0799815 0.320026 0 -1.18352 
61 1 61 0.0799905 0.360034 0 -1.11263 
62 1 62 0.079994 0.400029 0 -0.840358 
63 1 63 0.0799929 0.440028 0 -0.476895 
64 1 64 0.0799827 0.480025 0 -0.566316 
65 1 65 0.0799789 0.520034 0 -0.910021 
66 1 66 0.0799809 0.560038 0 -1.19426 
67 1 67 0.0799939 0.60005 0 -1.81085 
68 1 68 0.0800172 0.64004 0 -2.13299 
69 1 69 0.0800286 0.680039 0 -2.576 
70 1 70 0.0800471 0.720015 0 -2.77673 
71 1 71 0.0800413 0.760007 0 -2.70015 
72 1 72 0.0800538 0.799987 0 -2.35949 
73 1 73 0.0800488 0.839976 0 -2.3067 
74 1 74 0.0800597 0.879963 0 -2.90799 
75 1 75 0.0800631 0.919942 0 -2.98886 
76 1 76 0.0800724 0.95993 0 -1.67484 
77 1 77 0.0800952 0.999908 0 -0.271492 
78 1 78 0.12 0 0 0 
79 1 79 0.120008 0.0399954 0 -0.449105 
80 1 80 0.119997 0.0799909 0 -1.10303 
81 1 81 0.119982 0.11999 0 -1.95613 
82 1 82 0.11997 0.159991 0 -2.40095 
83 1 83 0.119967 0.199995 0 -2.21188 
84 1 84 0.119957 0.240001 0 -1.85652 
85 1 85 0.119953 0.280012 0 -1.88016 
86 1 86 0.11996 0.320017 0 -1.79701 
87 1 87 0.119974 0.360027 0 -1.79229 
88 1 88 0.119985 0.400026 0 -1.45387 
89 1 89 0.119982 0.440032 0 -0.99877 
90 1 90 0.119974 0.480034 0 -1.03667 
91 1 91 0.119965 0.520044 0 -1.39884 
92 1 92 0.119974 0.560051 0 -1.85756 
93 1 93 0.119996 0.600059 0 -2.55461 
94 1 94 0.120032 0.640053 0 -3.00055 
95 1 95 0.120056 0.680045 0 -3.32664 
96 1 96 0.120073 0.720027 0 -3.52735 
97 1 97 0.120078 0.760006 0 -3.13019 
98 1 98 0.120081 0.79999 0 -2.46665 
99 1 99 0.120086 0.839962 0 -2.38072 
100 1 100 0.120093 0.879944 0 -3.22138 
101 1 101 0.120097 0.919923 0 -3.78476 
102 1 102 0.12011 0.959896 0 -2.28693 
103 1 103 0.120115 0.999891 0 -0.701544 
104 1 104 0.16 0 0 0 
105 1 105 0.160006 0.0399936 0 -0.419075 
106 1 106 0.159992 0.0799894 0 -1.19246 
107 1 107 0.15997 0.119986 0 -2.21985 
108 1 108 0.159951 0.159985 0 -2.74572 
109 1 109 0.159942 0.19999 0 -2.65007 
110 1 110 0.15993 0.239997 0 -2.50839 
111 1 111 0.159924 0.280004 0 -2.5458 
112 1 112 0.159934 0.320011 0 -2.46035 
113 1 113 0.159952 0.360019 0 -2.5077 
114 1 114 0.159967 0.400024 0 -2.219 
115 1 115 0.159967 0.440033 0 -1.76311 
116 1 116 0.159959 0.480042 0 -1.75604 
117 1 117 0.159955 0.520051 0 -2.05872 
118 1 118 0.159967 0.560058 0 -2.51132 
119 1 119 0.159999 0.600061 0 -3.11308 
120 1 120 0.160041 0.640057 0 -3.57158 
121 1 121 0.160078 0.680047 0 -3.67615 
122 1 122 0.160097 0.720028 0 -3.49994 
123 1 123 0.160107 0.760008 0 -2.95344 
124 1 124 0.160114 0.79998 0 -2.10478 
125 1 125 0.160118 0.83996 0 -2.12035 
126 1 126 0.160127 0.879927 0 -3.09249 
127 1 127 0.160129 0.919912 0 -3.80574 
128 1 128 0.160138 0.959895 0 -2.72906 
129 1 129 0.160135 0.999877 0 -1.40694 
130 1 130 0.2 0 0 0 
131 1 131 0.200004 0.0399954 0 -0.179418 
132 1 132 0.199988 0.0799916 0 -1.00522 
133 1 133 0.199959 0.119986 0 -2.01928 
134 1 134 0.199935 0.159984 0 -2.72851 
135 1 135 0.199918 0.19999 0 -3.06965 
136 1 136 0.199903 0.239993 0 -3.22847 
137 1 137 0.199899 0.28 0 -3.28106 
138 1 138 0.199909 0.320005 0 -3.35704 
139 1 139 0.199929 0.360012 0 -3.53104 
140 1 140 0.199943 0.400021 0 -3.34839 
141 1 141 0.199947 0.440035 0 -3.01039 
142 1 142 0.199942 0.480043 0 -2.84384 
143 1 143 0.199944 0.520054 0 -3.02115 
144 1 144 0.199964 0.560053 0 -3.32819 
145 1 145 0.200004 0.600056 0 -3.65785 
146 1 146 0.200054 0.640048 0 -3.87869 
147 1 147 0.200096 0.680041 0 -3.59949 
148 1 148 0.200123 0.720023 0 -2.93678 
149 1 149 0.200134 0.760005 0 -2.10296 
150 1 150 0.200144 0.799975 0 -1.1918 
151 1 151 0.200148 0.839952 0 -1.22653 
152 1 152 0.200153 0.879928 0 -2.36247 
153 1 153 0.200154 0.919906 0 -3.4455 
154 1 154 0.200158 0.959894 0 -3.2543 
155 1 155 0.200157 0.999883 0 -2.61216 
156 1 156 0.24 0 0 0 
157 1 157 0.239999 0.0399961 0 -0.111254 
158 1 158 0.23998 0.0799921 0 -0.817479 
159 1 159 0.23995 0.119989 0 -1.65273 
160 1 160 0.239922 0.159988 0 -2.63995 
161 1 161 0.239897 0.199992 0 -3.36116 
162 1 162 0.239882 0.239992 0 -3.73034 
163 1 163 0.239883 0.279998 0 -3.99182 
164 1 164 0.239891 0.319997 0 -4.30137 
165 1 165 0.239908 0.360004 0 -4.57439 
166 1 166 0.239918 0.400015 0 -4.51378 
167 1 167 0.239923 0.440032 0 -4.37275 
168 1 168 0.239927 0.480039 0 -4.07282 
169 1 169 0.239934 0.520048 0 -4.00255 
170 1 170 0.23996 0.560042 0 -4.05396 
171 1 171 0.240001 0.600037 0 -4.04159 
172 1 172 0.240052 0.640031 0 -3.99014 
173 1 173 0.240101 0.680023 0 -3.23709 
174 1 174 0.240131 0.720014 0 -2.06851 
175 1 175 0.240153 0.759996 0 -0.987363 
176 1 176 0.240167 0.799973 0 -0.10946 
177 1 177 0.240171 0.839951 0 -0.260258 
178 1 178 0.240175 0.879927 0 -1.38963 
179 1 179 0.240173 0.919913 0 -2.78925 
180 1 180 0.240177 0.959896 0 -3.62728 
181 1 181 0.240172 0.999887 0 -3.702 
182 1 182 0.28 0 0 0 
183 1 183 0.279991 0.0399932 0 -0.113663 
184 1 184 0.279972 0.0799928 0 -0.586565 
185 1 185 0.279944 0.119995 0 -1.23069 
186 1 186 0.279913 0.159994 0 -2.40344 
187 1 187 0.279888 0.199995 0 -3.3847 
188 1 188 0.279876 0.239996 0 -4.05984 
189 1 189 0.27988 0.279996 0 -4.56064 
190 1 190 0.279883 0.319992 0 -4.82514 
191 1 191 0.279892 0.359999 0 -5.0817 
192 1 192 0.279897 0.400009 0 -5.21638 
193 1 193 0.279902 0.440024 0 -5.23029 
194 1 194 0.279911 0.480032 0 -4.93199 
195 1 195 0.279927 0.520033 0 -4.66035 
196 1 196 0.279958 0.560024 0 -4.41539 
197 1 197 0.280002 0.600015 0 -4.14985 
198 1 198 0.28005 0.640007 0 -3.83344 
199 1 199 0.280099 0.680002 0 -2.78909 
200 1 200 0.280137 0.719996 0 -1.25364 
201 1 201 0.280163 0.759987 0 0.014855 
202 1 202 0.280181 0.799966 0 0.645019 
203 1 203 0.280188 0.839952 0 0.337776 
204 1 204 0.28019 0.87993 0 -0.584624 
205 1 205 0.280189 0.919916 0 -2.02324 
206 1 206 0.280191 0.959906 0 -3.70354 
207 1 207 0.280185 0.999896 0 -4.44486 
208 1 208 0.32 0 0 0 
209 1 209 0.319979 0.0399939 0 -0.148494 
210 1 210 0.319961 0.0799983 0 -0.459198 
211 1 211 0.319938 0.120002 0 -0.831272 
212 1 212 0.319909 0.160001 0 -1.8293 
213 1 213 0.319885 0.2 0 -2.92026 
214 1 214 0.319878 0.239999 0 -3.82648 
215 1 215 0.319881 0.279994 0 -4.38475 
216 1 216 0.319882 0.319989 0 -4.53874 
217 1 217 0.31988 0.359996 0 -4.80478 
218 1 218 0.319877 0.400003 0 -5.1792 
219 1 219 0.319882 0.440017 0 -5.30057 
220 1 220 0.319896 0.480021 0 -4.96435 
221 1 221 0.319919 0.520018 0 -4.52962 
222 1 222 0.319954 0.560005 0 -4.11265 
223 1 223 0.319993 0.599993 0 -3.76214 
224 1 224 0.320036 0.639982 0 -3.2445 
225 1 225 0.320082 0.679981 0 -2.15548 
226 1 226 0.320126 0.719976 0 -0.654256 
227 1 227 0.320165 0.759971 0 0.671446 
228 1 228 0.320188 0.79996 0 1.05509 
229 1 229 0.3202 0.839946 0 0.58428 
230 1 230 0.320203 0.879932 0 -0.0416493 
231 1 231 0.320201 0.919922 0 -1.31683 
232 1 232 0.320201 0.959911 0 -3.51063 
233 1 233 0.320194 0.999909 0 -4.71991 
234 1 234 0.36 0 0 0 
235 1 235 0.359971 0.0399989 0 -0.40201 
236 1 236 0.359953 0.0800046 0 -0.539475 
237 1 237 0.359935 0.120009 0 -0.392781 
238 1 238 0.35991 0.160007 0 -0.936582 
239 1 239 0.35989 0.200006 0 -1.99765 
240 1 240 0.359885 0.239999 0 -2.83891 
241 1 241 0.359888 0.279991 0 -3.20621 
242 1 242 0.359883 0.319986 0 -3.3739 
243 1 243 0.35987 0.359991 0 -3.60366 
244 1 244 0.359859 0.399994 0 -4.01418 
245 1 245 0.359864 0.440005 0 -4.26389 
246 1 246 0.359883 0.480005 0 -3.98039 
247 1 247 0.359914 0.519997 0 -3.49592 
248 1 248 0.359951 0.559984 0 -3.0909 
249 1 249 0.359989 0.59997 0 -2.8108 
250 1 250 0.360028 0.63996 0 -2.28753 
251 1 251 0.360071 0.679959 0 -1.37149 
252 1 252 0.360118 0.719957 0 -0.128429 
253 1 253 0.360161 0.759955 0 0.876923 
254 1 254 0.360192 0.799949 0 0.907716 
255 1 255 0.360208 0.839942 0 0.466798 
256 1 256 0.360212 0.87993 0 0.22286 
257 1 257 0.360209 0.919925 0 -0.687258 
258 1 258 0.360206 0.95992 0 -2.90881 
259 1 259 0.360199 0.99992 0 -4.2842 
260 1 260 0.4 0 0 0 
261 1 261 0.399965 0.0400049 0 -0.66633 
262 1 262 0.399945 0.0800088 0 -0.482975 
263 1 263 0.399931 0.120012 0 0.254885 
264 1 264 0.399913 0.16001 0 0.194543 
265 1 265 0.399895 0.200004 0 -0.586846 
266 1 266 0.399892 0.239993 0 -1.19687 
267 1 267 0.399891 0.279985 0 -1.46639 
268 1 268 0.399879 0.31998 0 -1.75276 
269 1 269 0.399857 0.35998 0 -1.85061 
270 1 270 0.39984 0.39998 0 -2.12381 
271 1 271 0.399845 0.439984 0 -2.51363 
272 1 272 0.399867 0.47998 0 -2.31992 
273 1 273 0.399904 0.519971 0 -1.8215 
274 1 274 0.399942 0.559958 0 -1.42019 
275 1 275 0.399974 0.599946 0 -1.16173 
276 1 276 0.400006 0.639939 0 -0.834622 
277 1 277 0.400046 0.679939 0 -0.341472 
278 1 278 0.400099 0.719939 0 0.555405 
279 1 279 0.400149 0.759943 0 1.12968 
280 1 280 0.400188 0.799941 0 0.741109 
281 1 281 0.400211 0.839938 0 0.345948 
282 1 282 0.400217 0.879934 0 0.370734 
283 1 283 0.400212 0.919931 0 -0.195069 
284 1 284 0.400206 0.959928 0 -2.04643 
285 1 285 0.400198 0.999933 0 -3.27725 
286 1 286 0.44 0 0 0 
287 1 287 0.439967 0.0400088 0 -0.809695 
288 1 288 0.439947 0.0800109 0 -0.273518 
289 1 289 0.439935 0.120012 0 0.909133 
290 1 290 0.43992 0.160008 0 1.33157 
291 1 291 0.439904 0.199997 0 1.11521 
292 1 292 0.439898 0.239984 0 0.744709 
293 1 293 0.439891 0.279976 0 0.409613 
294 1 294 0.439869 0.319969 0 0.131572 
295 1 295 0.439841 0.359966 0 0.152976 
296 1 296 0.439822 0.399962 0 -0.10032 
297 1 297 0.439826 0.439958 0 -0.520957 
298 1 298 0.43985 0.479948 0 -0.283468 
299 1 299 0.43989 0.51994 0 0.169539 
300 1 300 0.43993 0.55993 0 0.400817 
301 1 301 0.439964 0.599922 0 0.68868 
302 1 302 0.439993 0.639918 0 0.943547 
303 1 303 0.440032 0.67992 0 0.937314 
304 1 304 0.440086 0.719923 0 1.26029 
305 1 305 0.440139 0.75993 0 1.32487 
306 1 306 0.440183 0.799934 0 0.736841 
307 1 307 0.440209 0.839936 0 0.456929 
308 1 308 0.440217 0.879936 0 0.584303 
309 1 309 0.440213 0.919937 0 0.392769 
310 1 310 0.440203 0.959935 0 -0.718734 
311 1 311 0.440195 0.999942 0 -1.54379 
312 1 312 0.48 0 0 0 
313 1 313 0.479971 0.0400095 0 -0.615597 
314 1 314 0.479951 0.0800107 0 0.15871 
315 1 315 0.479938 0.120009 0 1.50675 
316 1 316 0.479926 0.160004 0 2.36949 
317 1 317 0.479912 0.199991 0 2.67188 
318 1 318 0.479902 0.239977 0 2.41812 
319 1 319 0.479883 0.279967 0 1.9982 
320 1 320 0.479856 0.319958 0 1.6965 
321 1 321 0.479826 0.359952 0 1.68432 
322 1 322 0.479805 0.399942 0 1.48714 
323 1 323 0.479807 0.439929 0 1.28808 
324 1 324 0.479832 0.479918 0 1.56637 
325 1 325 0.479872 0.519909 0 1.9311 
326 1 326 0.479907 0.559902 0 2.12402 
327 1 327 0.479939 0.5999 0 2.45063 
328 1 328 0.479967 0.6399 0 2.73375 
329 1 329 0.480005 0.679903 0 2.46863 
330 1 330 0.480062 0.719908 0 2.24878 
331 1 331 0.480118 0.759917 0 1.76709 
332 1 332 0.480169 0.799926 0 1.04585 
333 1 333 0.480201 0.839934 0 0.849954 
334 1 334 0.480212 0.879937 0 0.925283 
335 1 335 0.480209 0.91994 0 1.08036 
336 1 336 0.480195 0.95994 0 0.858619 
337 1 337 0.480185 0.999949 0 0.535559 
338 1 338 0.52 0 0 0 
339 1 339 0.51998 0.0400083 0 0.0970972 
340 1 340 0.519962 0.0800087 0 0.98969 
341 1 341 0.519948 0.120006 0 2.13957 
342 1 342 0.519937 0.159998 0 3.18308 
343 1 343 0.519923 0.199985 0 3.76553 
344 1 344 0.519906 0.239969 0 3.54909 
345 1 345 0.519876 0.27996 0 3.07968 
346 1 346 0.519844 0.319951 0 2.58929 
347 1 347 0.519814 0.359941 0 2.48056 
348 1 348 0.519794 0.399925 0 2.6055 
349 1 349 0.519795 0.439906 0 2.72132 
350 1 350 0.519818 0.479892 0 2.868 
351 1 351 0.519853 0.519882 0 3.12021 
352 1 352 0.519887 0.559878 0 3.48819 
353 1 353 0.519921 0.599883 0 3.9171 
354 1 354 0.519953 0.639884 0 4.15987 
355 1 355 0.519993 0.679889 0 3.78691 
356 1 356 0.520046 0.719896 0 3.207 
357 1 357 0.520101 0.759906 0 2.35659 
358 1 358 0.520153 0.799918 0 1.68206 
359 1 359 0.520187 0.83993 0 1.59748 
360 1 360 0.520203 0.879936 0 1.57179 
361 1 361 0.520203 0.919943 0 1.99227 
362 1 362 0.520184 0.959946 0 2.53915 
363 1 363 0.520172 0.999956 0 2.6462 
364 1 364 0.56 0 0 0 
365 1 365 0.559986 0.0400048 0 0.980348 
366 1 366 0.559969 0.0800043 0 1.83375 
367 1 367 0.559954 0.12 0 2.54303 
368 1 368 0.559946 0.159991 0 3.55044 
369 1 369 0.559933 0.199979 0 4.34903 
370 1 370 0.559908 0.239964 0 4.19498 
371 1 371 0.55987 0.279955 0 3.61206 
372 1 372 0.559835 0.319947 0 3.0074 
373 1 373 0.559807 0.359933 0 2.92507 
374 1 374 0.559792 0.399914 0 3.27708 
375 1 375 0.559792 0.439892 0 3.60027 
376 1 376 0.559808 0.479875 0 3.75942 
377 1 377 0.559835 0.519866 0 3.9671 
378 1 378 0.559863 0.559866 0 4.28696 
379 1 379 0.559894 0.599872 0 4.75373 
380 1 380 0.559926 0.639875 0 5.12898 
381 1 381 0.559967 0.67988 0 4.75724 
382 1 382 0.560021 0.719888 0 3.89948 
383 1 383 0.560076 0.759898 0 2.86918 
384 1 384 0.56013 0.799912 0 2.34545 
385 1 385 0.560167 0.839928 0 2.39471 
386 1 386 0.560186 0.879937 0 2.31584 
387 1 387 0.560188 0.919948 0 2.94769 
388 1 388 0.560167 0.959953 0 4.11098 
389 1 389 0.560152 0.999965 0 4.55754 
390 1 390 0.6 0 0 0 
391 1 391 0.59999 0.0399986 0 1.82004 
392 1 392 0.599975 0.0799971 0 2.58829 
393 1 393 0.599962 0.119991 0 2.78321 
394 1 394 0.599956 0.159982 0 3.58958 
395 1 395 0.599942 0.199971 0 4.45198 
396 1 396 0.599911 0.23996 0 4.36464 
397 1 397 0.599867 0.279953 0 3.7557 
398 1 398 0.599833 0.319943 0 3.1771 
399 1 399 0.599811 0.359928 0 3.18074 
400 1 400 0.599801 0.399909 0 3.66 
401 1 401 0.599799 0.439884 0 4.19721 
402 1 402 0.599807 0.479867 0 4.44961 
403 1 403 0.599825 0.519859 0 4.54796 
404 1 404 0.599848 0.55986 0 4.73246 
405 1 405 0.59988 0.599867 0 5.18572 
406 1 406 0.599919 0.639873 0 5.66934 
407 1 407 0.59996 0.679878 0 5.36848 
408 1 408 0.600007 0.719884 0 4.40032 
409 1 409 0.600055 0.759895 0 3.38709 
410 1 410 0.600104 0.79991 0 3.00395 
411 1 411 0.600142 0.839928 0 3.15951 
412 1 412 0.600164 0.879942 0 3.11425 
413 1 413 0.600169 0.919958 0 3.84463 
414 1 414 0.600147 0.959965 0 5.32063 
415 1 415 0.600131 0.999978 0 5.93379 
416 1 416 0.64 0 0 0 
417 1 417 0.639986 0.0399922 0 2.26172 
418 1 418 0.639972 0.0799882 0 2.91076 
419 1 419 0.639963 0.119981 0 2.70282 
420 1 420 0.639958 0.15997 0 3.34611 
421 1 421 0.639943 0.199962 0 4.2345 
422 1 422 0.63991 0.239954 0 4.27904 
423 1 423 0.639864 0.279947 0 3.9278 
424 1 424 0.639834 0.319939 0 3.51759 
425 1 425 0.639819 0.359923 0 3.54905 
426 1 426 0.639814 0.399904 0 4.24565 
427 1 427 0.63981 0.439882 0 5.03665 
428 1 428 0.639811 0.479867 0 5.1691 
429 1 429 0.639817 0.519859 0 5.04895 
430 1 430 0.639829 0.559862 0 5.20183 
431 1 431 0.639856 0.599869 0 5.54437 
432 1 432 0.639895 0.639876 0 5.88219 
433 1 433 0.639936 0.679881 0 5.65641 
434 1 434 0.63998 0.719887 0 4.74865 
435 1 435 0.640027 0.759899 0 3.86205 
436 1 436 0.640071 0.799914 0 3.57406 
437 1 437 0.640111 0.839935 0 3.79661 
438 1 438 0.640133 0.879951 0 3.81995 
439 1 439 0.640141 0.919971 0 4.57858 
440 1 440 0.640121 0.959982 0 6.19715 
441 1 441 0.640102 0.999997 0 6.87373 
442 1 442 0.68 0 0 0 
443 1 443 0.67998 0.0399869 0 2.05785 
444 1 444 0.679969 0.0799777 0 2.58697 
445 1 445 0.679961 0.119968 0 2.29643 
446 1 446 0.679956 0.159957 0 2.89814 
447 1 447 0.679939 0.19995 0 3.87467 
448 1 448 0.679903 0.239946 0 4.17564 
449 1 449 0.679861 0.279939 0 4.19113 
450 1 450 0.679837 0.319931 0 4.11851 
451 1 451 0.679828 0.359917 0 4.26152 
452 1 452 0.679829 0.3999 0 5.03642 
453 1 453 0.679825 0.439882 0 5.96542 
454 1 454 0.679818 0.479869 0 6.1049 
455 1 455 0.679812 0.519863 0 5.94645 
456 1 456 0.67982 0.559866 0 5.99204 
457 1 457 0.679847 0.599873 0 6.03318 
458 1 458 0.679887 0.63988 0 6.19806 
459 1 459 0.679927 0.679887 0 6.07096 
460 1 460 0.679965 0.719895 0 5.21379 
461 1 461 0.680002 0.759908 0 4.47319 
462 1 462 0.680037 0.799923 0 4.19756 
463 1 463 0.680075 0.839946 0 4.38834 
464 1 464 0.680096 0.879966 0 4.43703 
465 1 465 0.680108 0.91999 0 5.06888 
466 1 466 0.680092 0.960004 0 6.59921 
467 1 467 0.680069 1.00002 0 7.22226 
468 1 468 0.72 0 0 0 
469 1 469 0.71997 0.039982 0 1.30072 
470 1 470 0.719958 0.0799673 0 1.7397 
471 1 471 0.719951 0.119955 0 1.70398 
472 1 472 0.719943 0.159944 0 2.32696 
473 1 473 0.719923 0.199939 0 3.31294 
474 1 474 0.719888 0.239937 0 4.00244 
475 1 475 0.719852 0.279931 0 4.51773 
476 1 476 0.719834 0.319923 0 4.89065 
477 1 477 0.719831 0.359909 0 5.32093 
478 1 478 0.719835 0.399897 0 6.12379 
479 1 479 0.71983 0.439883 0 7.06045 
480 1 480 0.719817 0.479874 0 7.32217 
481 1 481 0.719804 0.51987 0 7.20724 
482 1 482 0.719803 0.559873 0 7.08172 
483 1 483 0.719821 0.599878 0 6.83998 
484 1 484 0.719858 0.639887 0 6.80712 
485 1 485 0.719896 0.679896 0 6.67333 
486 1 486 0.719931 0.719905 0 5.91417 
487 1 487 0.719966 0.75992 0 5.37073 
488 1 488 0.719996 0.799937 0 4.94958 
489 1 489 0.720032 0.839962 0 4.95288 
490 1 490 0.72005 0.879985 0 5.0163 
491 1 491 0.720066 0.920012 0 5.47063 
492 1 492 0.720054 0.960031 0 6.7444 
493 1 493 0.720029 1.00005 0 7.21365 
494 1 494 0.76 0 0 0 
495 1 495 0.759963 0.0399774 0 0.139492 
496 1 496 0.759949 0.079958 0 0.443217 
497 1 497 0.759941 0.119943 0 0.815222 
498 1 498 0.759925 0.159933 0 1.58265 
499 1 499 0.7599 0.199928 0 2.61925 
500 1 500 0.759867 0.239927 0 3.75532 
501 1 501 0.759838 0.279921 0 4.90676 
502 1 502 0.759825 0.319912 0 5.76996 
503 1 503 0.759825 0.3599 0 6.44877 
504 1 504 0.759831 0.399892 0 7.31952 
505 1 505 0.759827 0.439884 0 8.30879 
506 1 506 0.759812 0.479879 0 8.68863 
507 1 507 0.759794 0.519876 0 8.67258 
508 1 508 0.759791 0.559878 0 8.52032 
509 1 509 0.759807 0.599883 0 8.04819 
510 1 510 0.759843 0.639893 0 7.63624 
511 1 511 0.759878 0.679905 0 7.35421 
512 1 512 0.759906 0.719918 0 6.72244 
513 1 513 0.759934 0.759936 0 6.35657 
514 1 514 0.759953 0.799954 0 5.76548 
515 1 515 0.759985 0.839981 0 5.53733 
516 1 516 0.759999 0.880007 0 5.52552 
517 1 517 0.760017 0.920037 0 5.68345 
518 1 518 0.760009 0.960062 0 6.53284 
519 1 519 0.759982 1.00009 0 6.77131 
520 1 520 0.8 0 0 0 
521 1 521 0.799955 0.0399731 0 -1.07233 
522 1 522 0.799935 0.0799492 0 -0.86309 
523 1 523 0.799921 0.119932 0 -0.0564088 
524 1 524 0.799899 0.159922 0 0.823114 
525 1 525 0.799868 0.199918 0 1.89064 
526 1 526 0.799838 0.239918 0 3.38764 
527 1 527 0.799815 0.27991 0 5.10651 
528 1 528 0.799807 0.319902 0 6.54545 
529 1 529 0.799806 0.359893 0 7.50833 
530 1 530 0.799813 0.399889 0 8.3202 
531 1 531 0.799809 0.439887 0 9.24928 
532 1 532 0.799794 0.479886 0 9.76245 
533 1 533 0.799775 0.519885 0 9.91013 
534 1 534 0.799768 0.559887 0 9.7234 
535 1 535 0.799775 0.599891 0 9.00328 
536 1 536 0.799802 0.639901 0 8.28321 
537 1 537 0.799833 0.679916 0 7.96936 
538 1 538 0.799861 0.719932 0 7.48099 
539 1 539 0.799887 0.759954 0 7.21829 
540 1 540 0.799901 0.799974 0 6.50519 
541 1 541 0.799929 0.840003 0 6.047 
542 1 542 0.799938 0.880032 0 5.93298 
543 1 543 0.799957 0.920065 0 5.80137 
544 1 544 0.799954 0.960097 0 6.15893 
545 1 545 0.799927 1.00012 0 6.14081 
546 1 546 0.84 0 0 0 
547 1 547 0.839952 0.0399687 0 -1.9076 
548 1 548 0.839926 0.0799407 0 -1.84792 
549 1 549 0.839902 0.119921 0 -0.821442 
550 1 550 0.839869 0.159912 0 0.040083 
551 1 551 0.839834 0.199907 0 1.10719 
552 1 552 0.839806 0.239906 0 2.95664 
553 1 553 0.83979 0.279898 0 5.11443 
554 1 554 0.839784 0.31989 0 6.97442 
555 1 555 0.839781 0.359884 0 8.2084 
556 1 556 0.839786 0.399885 0 8.95596 
557 1 557 0.839783 0.439888 0 9.75773 
558 1 558 0.839772 0.479893 0 10.4085 
559 1 559 0.839756 0.519894 0 10.7568 
560 1 560 0.839751 0.559895 0 10.5697 
561 1 561 0.839757 0.5999 0 9.7244 
562 1 562 0.839779 0.639911 0 8.73322 
563 1 563 0.839804 0.679929 0 8.26871 
564 1 564 0.839823 0.719948 0 7.89598 
565 1 565 0.839843 0.759973 0 7.82842 
566 1 566 0.83985 0.799996 0 7.15054 
567 1 567 0.83987 0.840026 0 6.50281 
568 1 568 0.839874 0.880058 0 6.30481 
569 1 569 0.839889 0.920094 0 5.91686 
570 1 570 0.839887 0.960132 0 5.724 
571 1 571 0.839863 1.00016 0 5.43464 
572 1 572 0.88 0 0 0 
573 1 573 0.879947 0.0399637 0 -2.15785 
574 1 574 0.879911 0.079933 0 -2.27117 
575 1 575 0.879875 0.119911 0 -1.25998 
576 1 576 0.879835 0.159902 0 -0.482767 
577 1 577 0.879797 0.199896 0 0.513736 
578 1 578 0.879773 0.239892 0 2.55731 
579 1 579 0.879761 0.279884 0 5.00666 
580 1 580 0.879755 0.319879 0 7.1367 
581 1 581 0.879749 0.359877 0 8.54057 
582 1 582 0.87975 0.399883 0 9.19886 
583 1 583 0.879747 0.439891 0 9.77808 
584 1 584 0.879741 0.479901 0 10.3939 
585 1 585 0.879728 0.519906 0 10.8548 
586 1 586 0.879721 0.559908 0 10.7366 
587 1 587 0.879718 0.599913 0 9.94317 
588 1 588 0.879728 0.639924 0 8.83033 
589 1 589 0.879747 0.679944 0 8.30706 
590 1 590 0.879764 0.719967 0 8.11948 
591 1 591 0.879784 0.759994 0 8.23932 
592 1 592 0.879788 0.80002 0 7.69439 
593 1 593 0.879802 0.840051 0 6.94113 
594 1 594 0.879802 0.880085 0 6.60717 
595 1 595 0.879811 0.920123 0 5.94787 
596 1 596 0.879812 0.960166 0 5.30316 
597 1 597 0.879792 1.0002 0 4.84466 
598 1 598 0.92 0 0 0 
599 1 599 0.919946 0.0399585 0 -1.69356 
600 1 600 0.919899 0.0799258 0 -1.95303 
601 1 601 0.919849 0.119902 0 -1.26016 
602 1 602 0.919802 0.159892 0 -0.664 
603 1 603 0.919763 0.199882 0 0.275948 
604 1 604 0.919742 0.239876 0 2.3512 
605 1 605 0.919733 0.279868 0 4.83451 
606 1 606 0.919726 0.319865 0 7.04562 
607 1 607 0.919714 0.359867 0 8.49945 
608 1 608 0.919712 0.399877 0 9.00355 
609 1 609 0.91971 0.43989 0 9.36022 
610 1 610 0.919709 0.479904 0 9.97755 
611 1 611 0.919703 0.519914 0 10.5889 
612 1 612 0.919701 0.559918 0 10.5852 
613 1 613 0.919697 0.599927 0 9.96746 
614 1 614 0.9197 0.639938 0 8.90959 
615 1 615 0.91971 0.67996 0 8.37798 
616 1 616 0.919718 0.719985 0 8.29277 
617 1 617 0.91973 0.760014 0 8.51871 
618 1 618 0.919729 0.800043 0 8.2177 
619 1 619 0.919734 0.840075 0 7.49617 
620 1 620 0.919729 0.880111 0 7.01245 
621 1 621 0.91973 0.92015 0 6.0993 
622 1 622 0.919727 0.960196 0 5.10368 
623 1 623 0.91971 1.00024 0 4.54503 
624 1 624 0.96 0 0 0 
625 1 625 0.959939 0.0399546 0 -0.755913 
626 1 626 0.959879 0.0799204 0 -1.09948 
627 1 627 0.959819 0.119895 0 -0.855211 
628 1 628 0.959768 0.159882 0 -0.46982 
629 1 629 0.95973 0.199869 0 0.434137 
630 1 630 0.959711 0.23986 0 2.45997 
631 1 631 0.959702 0.279853 0 4.78207 
632 1 632 0.959692 0.319852 0 6.86575 
633 1 633 0.959677 0.359857 0 8.30726 
634 1 634 0.95967 0.399871 0 8.73308 
635 1 635 0.959666 0.439888 0 8.89941 
636 1 636 0.95967 0.479906 0 9.44692 
637 1 637 0.95967 0.51992 0 10.1707 
638 1 638 0.959666 0.559929 0 10.3719 
639 1 639 0.959655 0.599941 0 10.0905 
640 1 640 0.959645 0.639954 0 9.23008 
641 1 641 0.959649 0.679977 0 8.70535 
642 1 642 0.959654 0.720003 0 8.68008 
643 1 643 0.959665 0.760033 0 8.95274 
644 1 644 0.959663 0.800065 0 8.83658 
645 1 645 0.959661 0.840097 0 8.12359 
646 1 646 0.95965 0.880135 0 7.45564 
647 1 647 0.959643 0.920175 0 6.34348 
648 1 648 0.959636 0.960222 0 5.10157 
649 1 649 0.959623 1.00027 0 4.47675 
650 1 650 1 0 0 0 
651 1 651 0.999935 0.0399525 0 0.419603 
652 1 652 0.999863 0.0799172 0 0.0454607 
653 1 653 0.999793 0.11989 0 -0.184203 
654 1 654 0.999739 0.159873 0 0.0546717 
655 1 655 0.999702 0.199856 0 0.965847 
656 1 656 0.999684 0.239843 0 2.86356 
657 1 657 0.999672 0.279836 0 4.95131 
658 1 658 0.999659 0.319837 0 6.85822 
659 1 659 0.99964 0.359844 0 8.25123 
660 1 660 0.999628 0.399859 0 8.62711 
661 1 661 0.999625 0.43988 0 8.63896 
662 1 662 0.999633 0.479901 0 9.05853 
663 1 663 0.999639 0.51992 0 9.8143 
664 1 664 0.999641 0.559935 0 10.2528 
665 1 665 0.999634 0.59995 0 10.4094 
666 1 666 0.999619 0.639966 0 9.86296 
667 1 667 0.999613 0.67999 0 9.34739 
668 1 668 0.999606 0.720018 0 9.24536 
669 1 669 0.999608 0.760049 0 9.39334 
670 1 670 0.999601 0.800084 0 9.37202 
671 1 671 0.999591 0.840117 0 8.7416 
672 1 672 0.999573 0.880157 0 7.92572 
673 1 673 0.999556 0.920197 0 6.67994 
674 1 674 0.99954 0.960244 0 5.38604 
675 1 675 0.999527 1.00029 0 4.7914 
676 1 676 1.04 0 0 0 
677 1 677 1.03992 0.0399528 0 1.43555 
678 1 678 1.03984 0.0799171 0 1.11654 
679 1 679 1.03977 0.119888 0 0.559248 
680 1 680 1.03971 0.159867 0 0.773495 
681 1 681 1.03968 0.199847 0 1.79287 
682 1 682 1.03966 0.239831 0 3.55932 
683 1 683 1.03964 0.279823 0 5.34033 
684 1 684 1.03962 0.319824 0 6.96952 
685 1 685 1.0396 0.359833 0 8.2476 
686 1 686 1.03958 0.399847 0 8.6263 
687 1 687 1.03958 0.439868 0 8.61652 
688 1 688 1.03959 0.479891 0 8.98606 
689 1 689 1.0396 0.519915 0 9.742 
690 1 690 1.0396 0.559936 0 10.3374 
691 1 691 1.03959 0.599956 0 10.8288 
692 1 692 1.03956 0.639976 0 10.5906 
693 1 693 1.03955 0.680001 0 10.1023 
694 1 694 1.03954 0.72003 0 9.83882 
695 1 695 1.03954 0.760062 0 9.75456 
696 1 696 1.03953 0.800099 0 9.72337 
697 1 697 1.03951 0.840134 0 9.19725 
698 1 698 1.03949 0.880175 0 8.32665 
699 1 699 1.03946 0.920216 0 7.07207 
700 1 700 1.03944 0.960264 0 5.86774 
701 1 701 1.03943 1.00032 0 5.34256 
702 1 702 1.08 0 0 0 
703 1 703 1.07992 0.0399553 0 2.00463 
704 1 704 1.07983 0.0799195 0 1.807 
705 1 705 1.07975 0.119889 0 1.17761 
706 1 706 1.07969 0.159862 0 1.49147 
707 1 707 1.07965 0.199838 0 2.64009 
708 1 708 1.07963 0.239821 0 4.28953 
709 1 709 1.07961 0.279812 0 5.84999 
710 1 710 1.07958 0.319812 0 7.27159 
711 1 711 1.07956 0.359819 0 8.44675 
712 1 712 1.07954 0.399831 0 8.84551 
713 1 713 1.07953 0.439851 0 8.78352 
714 1 714 1.07954 0.479875 0 8.95533 
715 1 715 1.07955 0.519903 0 9.55109 
716 1 716 1.07956 0.55993 0 10.2891 
717 1 717 1.07955 0.599955 0 11.1624 
718 1 718 1.07953 0.63998 0 11.329 
719 1 719 1.07951 0.680006 0 10.9763 
720 1 720 1.07949 0.720037 0 10.5471 
721 1 721 1.07948 0.760071 0 10.1735 
722 1 722 1.07946 0.80011 0 9.99856 
723 1 723 1.07944 0.840148 0 9.53324 
724 1 724 1.07941 0.880191 0 8.73804 
725 1 725 1.07937 0.920234 0 7.61383 
726 1 726 1.07934 0.960281 0 6.54062 
727 1 727 1.07932 1.00033 0 6.05972 
728 1 728 1.12 0 0 0 
729 1 729 1.11991 0.0399592 0 2.04631 
730 1 730 1.11981 0.0799235 0 2.03642 
731 1 731 1.11973 0.119891 0 1.60595 
732 1 732 1.11967 0.159861 0 2.12086 
733 1 733 1.11963 0.199835 0 3.39017 
734 1 734 1.1196 0.239816 0 4.90274 
735 1 735 1.11957 0.279806 0 6.25734 
736 1 736 1.11954 0.319803 0 7.44332 
737 1 737 1.11952 0.359808 0 8.43911 
738 1 738 1.11949 0.399817 0 8.86557 
739 1 739 1.11948 0.439835 0 8.866 
740 1 740 1.11948 0.479858 0 8.96843 
741 1 741 1.11949 0.519889 0 9.44708 
742 1 742 1.1195 0.559922 0 10.2876 
743 1 743 1.11949 0.599952 0 11.3969 
744 1 744 1.11946 0.639983 0 11.8385 
745 1 745 1.11944 0.680011 0 11.6261 
746 1 746 1.11942 0.720044 0 11.0488 
747 1 747 1.1194 0.760078 0 10.4043 
748 1 748 1.11938 0.800119 0 10.0434 
749 1 749 1.11935 0.840161 0 9.65571 
750 1 750 1.11932 0.880206 0 9.14376 
751 1 751 1.11928 0.920251 0 8.33632 
752 1 752 1.11924 0.960298 0 7.44312 
753 1 753 1.11922 1.00035 0 6.99724 
754 1 754 1.16 0 0 0 
755 1 755 1.15991 0.0399635 0 1.57376 
756 1 756 1.15981 0.0799277 0 1.81988 
757 1 757 1.15972 0.119893 0 1.82269 
758 1 758 1.15966 0.15986 0 2.5378 
759 1 759 1.15962 0.199833 0 3.82788 
760 1 760 1.15958 0.239814 0 5.17672 
761 1 761 1.15954 0.279802 0 6.38175 
762 1 762 1.15951 0.319796 0 7.38171 
763 1 763 1.15948 0.359798 0 8.21026 
764 1 764 1.15945 0.399803 0 8.69018 
765 1 765 1.15943 0.439817 0 8.77908 
766 1 766 1.15942 0.47984 0 8.82298 
767 1 767 1.15943 0.519872 0 9.1297 
768 1 768 1.15944 0.55991 0 9.97776 
769 1 769 1.15943 0.599946 0 11.2909 
770 1 770 1.15942 0.639982 0 12.1282 
771 1 771 1.15939 0.680013 0 12.29 
772 1 772 1.15936 0.720049 0 11.7013 
773 1 773 1.15933 0.760085 0 10.8647 
774 1 774 1.1593 0.800128 0 10.3221 
775 1 775 1.15927 0.840173 0 9.89573 
776 1 776 1.15923 0.88022 0 9.63189 
777 1 777 1.15919 0.920268 0 9.16868 
778 1 778 1.15914 0.960314 0 8.42639 
779 1 779 1.15912 1.00036 0 7.98507 
780 1 780 1.2 0 0 0 
781 1 781 1.1999 0.0399665 0 0.811882 
782 1 782 1.1998 0.079931 0 1.34742 
783 1 783 1.19972 0.119896 0 1.92268 
784 1 784 1.19966 0.159862 0 2.81291 
785 1 785 1.1996 0.199835 0 3.97977 
786 1 786 1.19956 0.239816 0 5.06355 
787 1 787 1.19952 0.279803 0 6.10862 
788 1 788 1.19947 0.319795 0 6.92879 
789 1 789 1.19944 0.359793 0 7.56625 
790 1 790 1.1994 0.399796 0 8.12303 
791 1 791 1.19937 0.439808 0 8.40164 
792 1 792 1.19936 0.479829 0 8.55278 