ITEM: TIMESTEP
0
ITEM: NUMBER OF ATOMS
7127
ITEM: BOX BOUNDS sm sm sm
0 4
0 2
0 0
ITEM: ATOMS id type tag x y z vx 
0 1 0 0 0 0 0 
1 1 1 0 0.04 0 0 
2 1 2 0 0.08 0 0 
3 1 3 0 0.12 0 0 
4 1 4 0 0.16 0 0 
5 1 5 0 0.2 0 0 
6 1 6 0 0.24 0 0 
7 1 7 0 0.28 0 0 
8 1 8 0 0.32 0 0 
9 1 9 0 0.36 0 0 
10 1 10 0 0.4 0 0 
11 1 11 0 0.44 0 0 
12 1 12 0 0.48 0 0 
13 1 13 0 0.52 0 0 
14 1 14 0 0.56 0 0 
15 1 15 0 0.6 0 0 
16 1 16 0 0.64 0 0 
17 1 17 0 0.68 0 0 
18 1 18 0 0.72 0 0 
19 1 19 0 0.76 0 0 
20 1 20 0 0.8 0 0 
21 1 21 0 0.84 0 0 
22 1 22 0 0.88 0 0 
23 1 23 0 0.92 0 0 
24 1 24 0 0.96 0 0 
25 1 25 0 1 0 0 
26 1 26 0.04 0 0 0 
27 1 27 0.0400012 0.0399992 0 -0.0424313 
28 1 28 0.040003 0.0799961 0 0.136298 
29 1 29 0.0400011 0.119992 0 0.426971 
30 1 30 0.0400014 0.159988 0 0.691184 
31 1 31 0.0400009 0.199983 0 0.79188 
32 1 32 0.0399972 0.239974 0 0.976523 
33 1 33 0.0399986 0.279972 0 1.2897 
34 1 34 0.039999 0.31997 0 1.54303 
35 1 35 0.0400055 0.359971 0 1.58923 
36 1 36 0.0400078 0.399969 0 1.81178 
37 1 37 0.0400113 0.439971 0 1.89991 
38 1 38 0.0400129 0.479973 0 1.78687 
39 1 39 0.0400136 0.519979 0 1.50782 
40 1 40 0.0400141 0.559984 0 1.43147 
41 1 41 0.0400138 0.599989 0 1.28591 
42 1 42 0.0400145 0.639988 0 1.299 
43 1 43 0.0400054 0.679989 0 1.15887 
44 1 44 0.040004 0.719988 0 1.00556 
45 1 45 0.0399884 0.759994 0 0.840044 
46 1 46 0.0399926 0.8 0 0.609823 
47 1 47 0.0399856 0.84001 0 0.727555 
48 1 48 0.0399914 0.880013 0 0.194633 
49 1 49 0.0400042 0.920015 0 0.364216 
50 1 50 0.0400099 0.960009 0 0.697889 
51 1 51 0.0400135 1.00001 0 0.473359 
52 1 52 0.08 0 0 0 
53 1 53 0.0800043 0.0399966 0 -0.0139341 
54 1 54 0.0800056 0.0799873 0 0.388311 
55 1 55 0.0800042 0.11998 0 0.738828 
56 1 56 0.0800076 0.15997 0 1.01127 
57 1 57 0.0800061 0.199961 0 1.3436 
58 1 58 0.0800018 0.23995 0 1.8248 
59 1 59 0.0799994 0.279948 0 2.32209 
60 1 60 0.08 0.319944 0 2.85596 
61 1 61 0.0800085 0.359947 0 3.24528 
62 1 62 0.0800163 0.399943 0 3.74954 
63 1 63 0.0800182 0.439946 0 3.80788 
64 1 64 0.0800215 0.479947 0 3.45719 
65 1 65 0.0800165 0.519955 0 2.81696 
66 1 66 0.0800228 0.559962 0 2.55093 
67 1 67 0.0800189 0.599969 0 2.45136 
68 1 68 0.0800268 0.639969 0 2.48481 
69 1 69 0.0800094 0.679969 0 2.38419 
70 1 70 0.0800027 0.719971 0 1.85457 
71 1 71 0.0799805 0.75998 0 1.50096 
72 1 72 0.0799744 0.799994 0 1.0745 
73 1 73 0.0799759 0.840007 0 0.901669 
74 1 74 0.0799845 0.880018 0 0.471452 
75 1 75 0.0800077 0.920026 0 0.746807 
76 1 76 0.0800223 0.96002 0 1.22 
77 1 77 0.0800433 1.00001 0 1.08209 
78 1 78 0.12 0 0 0 
79 1 79 0.120008 0.0399891 0 0.0171064 
80 1 80 0.120011 0.0799772 0 0.545388 
81 1 81 0.12001 0.119966 0 0.846368 
82 1 82 0.120015 0.159953 0 1.08691 
83 1 83 0.120013 0.199943 0 1.60613 
84 1 84 0.120009 0.239933 0 2.3185 
85 1 85 0.120001 0.279929 0 3.11278 
86 1 86 0.120002 0.319926 0 4.00773 
87 1 87 0.120011 0.359927 0 4.78904 
88 1 88 0.120023 0.399927 0 5.46904 
89 1 89 0.120023 0.439928 0 5.51793 
90 1 90 0.120025 0.479931 0 4.99178 
91 1 91 0.120017 0.519933 0 4.12148 
92 1 92 0.120023 0.55994 0 3.5891 
93 1 93 0.120026 0.599939 0 3.49641 
94 1 94 0.120031 0.639943 0 3.37199 
95 1 95 0.12002 0.679941 0 3.12311 
96 1 96 0.119996 0.71995 0 2.34427 
97 1 97 0.119974 0.75996 0 1.55593 
98 1 98 0.119961 0.799977 0 1.15839 
99 1 99 0.119963 0.839995 0 0.686272 
100 1 100 0.119982 0.880004 0 0.294664 
101 1 101 0.120006 0.920021 0 0.723826 
102 1 102 0.120042 0.960017 0 1.42021 
103 1 103 0.120071 1.00001 0 1.7057 
104 1 104 0.16 0 0 0 
105 1 105 0.16001 0.0399841 0 0.0390496 
106 1 106 0.160015 0.0799703 0 0.558811 
107 1 107 0.160014 0.119956 0 0.899298 
108 1 108 0.160019 0.159945 0 1.21003 
109 1 109 0.160019 0.199936 0 1.77341 
110 1 110 0.160014 0.239929 0 2.64618 
111 1 111 0.160004 0.279923 0 3.83977 
112 1 112 0.160005 0.31992 0 5.02744 
113 1 113 0.160013 0.359917 0 6.01743 
114 1 114 0.160023 0.399918 0 6.71759 
115 1 115 0.160025 0.439916 0 6.74985 
116 1 116 0.160022 0.479918 0 6.05869 
117 1 117 0.16002 0.519916 0 4.9884 
118 1 118 0.160021 0.559916 0 4.27476 
119 1 119 0.160029 0.599914 0 3.98304 
120 1 120 0.160031 0.639913 0 3.73454 
121 1 121 0.160018 0.679916 0 3.25206 
122 1 122 0.159993 0.719919 0 2.37672 
123 1 123 0.159962 0.759936 0 1.29288 
124 1 124 0.159953 0.799945 0 0.729759 
125 1 125 0.159954 0.839967 0 0.238088 
126 1 126 0.159977 0.879979 0 -0.0980193 
127 1 127 0.160005 0.919988 0 0.347319 
128 1 128 0.160054 0.959996 0 1.32895 
129 1 129 0.160096 0.999991 0 2.06972 
130 1 130 0.2 0 0 0 
131 1 131 0.200009 0.0399817 0 0.111071 
132 1 132 0.200013 0.0799662 0 0.647241 
133 1 133 0.200014 0.119953 0 1.0573 
134 1 134 0.200019 0.159943 0 1.3989 
135 1 135 0.200019 0.199936 0 1.96059 
136 1 136 0.200014 0.239932 0 2.97372 
137 1 137 0.200008 0.279927 0 4.35496 
138 1 138 0.200008 0.31992 0 5.681 
139 1 139 0.200015 0.359915 0 6.76689 
140 1 140 0.200023 0.399911 0 7.37777 
141 1 141 0.200026 0.43991 0 7.27688 
142 1 142 0.200022 0.479904 0 6.47455 
143 1 143 0.200021 0.519901 0 5.31691 
144 1 144 0.200025 0.559891 0 4.55002 
145 1 145 0.200031 0.599888 0 4.03519 
146 1 146 0.200037 0.639884 0 3.62262 
147 1 147 0.20002 0.679888 0 3.05202 
148 1 148 0.199992 0.719892 0 2.04868 
149 1 149 0.199961 0.759901 0 0.880195 
150 1 150 0.199948 0.799912 0 0.157944 
151 1 151 0.19995 0.839922 0 -0.454573 
152 1 152 0.199976 0.879939 0 -0.697309 
153 1 153 0.200006 0.919948 0 -0.330081 
154 1 154 0.20006 0.959952 0 0.730515 
155 1 155 0.200108 0.999954 0 1.7222 
156 1 156 0.24 0 0 0 
157 1 157 0.240002 0.0399789 0 0.225076 
158 1 158 0.240005 0.0799645 0 0.842136 
159 1 159 0.240007 0.119954 0 1.29534 
160 1 160 0.240009 0.159945 0 1.65144 
161 1 161 0.240011 0.19994 0 2.17862 
162 1 162 0.24001 0.239937 0 3.2496 
163 1 163 0.240008 0.279932 0 4.67078 
164 1 164 0.240011 0.31992 0 6.07757 
165 1 165 0.240016 0.359913 0 7.13218 
166 1 166 0.240023 0.399905 0 7.42961 
167 1 167 0.240024 0.439901 0 7.10149 
168 1 168 0.240024 0.479892 0 6.30394 
169 1 169 0.240026 0.51988 0 5.3156 
170 1 170 0.24003 0.55987 0 4.54047 
171 1 171 0.240035 0.599858 0 3.81346 
172 1 172 0.240034 0.639857 0 3.15858 
173 1 173 0.240018 0.679858 0 2.43832 
174 1 174 0.23999 0.719864 0 1.52258 
175 1 175 0.23996 0.75987 0 0.376427 
176 1 176 0.239948 0.799874 0 -0.496297 
177 1 177 0.239947 0.839884 0 -1.19312 
178 1 178 0.239972 0.879888 0 -1.38971 
179 1 179 0.240004 0.919895 0 -1.09952 
180 1 180 0.240058 0.959902 0 -0.127852 
181 1 181 0.240102 0.999905 0 0.8912 
182 1 182 0.28 0 0 0 
183 1 183 0.279992 0.0399767 0 0.318895 
184 1 184 0.279991 0.0799637 0 0.922212 
185 1 185 0.279995 0.119953 0 1.3625 
186 1 186 0.279993 0.159948 0 1.81009 
187 1 187 0.279995 0.199945 0 2.33496 
188 1 188 0.28 0.239942 0 3.41608 
189 1 189 0.280006 0.279934 0 4.87717 
190 1 190 0.280013 0.319922 0 6.23847 
191 1 191 0.280017 0.359911 0 7.02467 
192 1 192 0.280022 0.399902 0 6.92259 
193 1 193 0.280027 0.439892 0 6.47602 
194 1 194 0.28003 0.479881 0 5.77431 
195 1 195 0.280037 0.519864 0 5.0343 
196 1 196 0.280042 0.559849 0 4.37654 
197 1 197 0.280045 0.599837 0 3.46232 
198 1 198 0.28004 0.63983 0 2.60764 
199 1 199 0.28002 0.679837 0 1.70463 
200 1 200 0.279996 0.719835 0 0.908937 
201 1 201 0.279966 0.759842 0 0.064797 
202 1 202 0.279951 0.799839 0 -0.911188 
203 1 203 0.27995 0.83984 0 -1.72329 
204 1 204 0.279972 0.879842 0 -1.8493 
205 1 205 0.280001 0.919838 0 -1.76622 
206 1 206 0.280047 0.959847 0 -1.33435 
207 1 207 0.280083 0.999855 0 -0.655684 
208 1 208 0.32 0 0 0 
209 1 209 0.31998 0.0399761 0 0.436059 
210 1 210 0.319974 0.0799622 0 0.864248 
211 1 211 0.319975 0.119951 0 1.18643 
212 1 212 0.319972 0.159947 0 1.68614 
213 1 213 0.319975 0.199945 0 2.24925 
214 1 214 0.319986 0.239942 0 3.3601 
215 1 215 0.320001 0.279934 0 4.81623 
216 1 216 0.320012 0.319923 0 6.00106 
217 1 217 0.320017 0.359911 0 6.47799 
218 1 218 0.320021 0.399899 0 6.15182 
219 1 219 0.32003 0.439888 0 5.65515 
220 1 220 0.320039 0.479874 0 5.14128 
221 1 221 0.320049 0.519857 0 4.72696 
222 1 222 0.320055 0.559839 0 4.20914 
223 1 223 0.320051 0.599827 0 3.19809 
224 1 224 0.320039 0.639818 0 2.1085 
225 1 225 0.320017 0.67982 0 1.06608 
226 1 226 0.319995 0.719818 0 0.293486 
227 1 227 0.319973 0.759813 0 -0.40415 
228 1 228 0.319957 0.799808 0 -1.26156 
229 1 229 0.319952 0.839797 0 -2.07308 
230 1 230 0.319971 0.879793 0 -2.21565 
231 1 231 0.319993 0.91979 0 -2.31678 
232 1 232 0.320026 0.959797 0 -2.59015 
233 1 233 0.320052 0.999809 0 -2.46194 
234 1 234 0.36 0 0 0 
235 1 235 0.359972 0.0399766 0 0.419818 
236 1 236 0.359959 0.0799606 0 0.612519 
237 1 237 0.359955 0.119949 0 0.859628 
238 1 238 0.359951 0.159945 0 1.28647 
239 1 239 0.359955 0.199942 0 1.83519 
240 1 240 0.359971 0.239938 0 2.99997 
241 1 241 0.359995 0.279933 0 4.32383 
242 1 242 0.360012 0.319923 0 5.29396 
243 1 243 0.360018 0.359911 0 5.67459 
244 1 244 0.360025 0.3999 0 5.28569 
245 1 245 0.360038 0.439888 0 4.73616 
246 1 246 0.360053 0.479871 0 4.57473 
247 1 247 0.360066 0.519854 0 4.63096 
248 1 248 0.360073 0.559836 0 4.18381 
249 1 249 0.360067 0.599823 0 3.06484 
250 1 250 0.360047 0.639814 0 1.69293 
251 1 251 0.360024 0.67981 0 0.451378 
252 1 252 0.360003 0.719804 0 -0.184593 
253 1 253 0.35998 0.759795 0 -0.784224 
254 1 254 0.359966 0.799779 0 -1.60877 
255 1 255 0.359958 0.839766 0 -2.25434 
256 1 256 0.359967 0.879755 0 -2.42537 
257 1 257 0.359981 0.919748 0 -2.85435 
258 1 258 0.359999 0.959758 0 -3.85138 
259 1 259 0.360013 0.999769 0 -4.27537 
260 1 260 0.4 0 0 0 
261 1 261 0.399965 0.039976 0 0.382955 
262 1 262 0.399945 0.0799589 0 0.335621 
263 1 263 0.399938 0.119947 0 0.4432 
264 1 264 0.399933 0.159943 0 0.771051 
265 1 265 0.399938 0.199939 0 1.38431 
266 1 266 0.399959 0.239935 0 2.5595 
267 1 267 0.39999 0.279931 0 3.62734 
268 1 268 0.400011 0.319923 0 4.39558 
269 1 269 0.400023 0.359912 0 4.72713 
270 1 270 0.400034 0.399902 0 4.31068 
271 1 271 0.400049 0.439887 0 3.85675 
272 1 272 0.400067 0.479869 0 4.08808 
273 1 273 0.400082 0.519855 0 4.39025 
274 1 274 0.400087 0.559836 0 3.94939 
275 1 275 0.400073 0.599825 0 2.80782 
276 1 276 0.400048 0.639814 0 1.19475 
277 1 277 0.400024 0.679806 0 -0.236429 
278 1 278 0.400005 0.719795 0 -0.849856 
279 1 279 0.399989 0.759782 0 -1.28805 
280 1 280 0.399973 0.799763 0 -1.97626 
281 1 281 0.399962 0.839743 0 -2.53887 
282 1 282 0.399962 0.879732 0 -2.7908 
283 1 283 0.399964 0.919725 0 -3.52836 
284 1 284 0.39997 0.959733 0 -4.9941 
285 1 285 0.399973 0.999746 0 -5.74627 
286 1 286 0.44 0 0 0 
287 1 287 0.439965 0.0399776 0 0.462125 
288 1 288 0.43994 0.0799607 0 0.203058 
289 1 289 0.439927 0.11995 0 0.0872058 
290 1 290 0.43992 0.159944 0 0.420829 
291 1 291 0.439928 0.199939 0 1.12516 
292 1 292 0.439953 0.239937 0 2.13433 
293 1 293 0.439988 0.279931 0 2.92858 
294 1 294 0.440015 0.319926 0 3.51102 
295 1 295 0.440033 0.359917 0 3.72375 
296 1 296 0.440048 0.399903 0 3.42511 
297 1 297 0.440065 0.439887 0 3.30326 
298 1 298 0.440087 0.479869 0 3.80064 
299 1 299 0.440101 0.519856 0 4.09398 
300 1 300 0.440104 0.559837 0 3.59403 
301 1 301 0.440088 0.599827 0 2.43345 
302 1 302 0.440059 0.639815 0 0.63353 
303 1 303 0.440034 0.679803 0 -0.958865 
304 1 304 0.440014 0.719791 0 -1.76664 
305 1 305 0.439998 0.759773 0 -2.2041 
306 1 306 0.439983 0.799755 0 -2.60096 
307 1 307 0.439967 0.839736 0 -3.01775 
308 1 308 0.439956 0.879722 0 -3.44263 
309 1 309 0.439949 0.919717 0 -4.36951 
310 1 310 0.439941 0.959724 0 -5.76065 
311 1 311 0.439934 0.999735 0 -6.44821 
312 1 312 0.48 0 0 0 
313 1 313 0.479966 0.0399838 0 0.639641 
314 1 314 0.479938 0.0799679 0 0.370888 
315 1 315 0.47992 0.119959 0 0.235063 
316 1 316 0.479914 0.159951 0 0.638914 
317 1 317 0.479925 0.199947 0 1.3006 
318 1 318 0.479951 0.239943 0 2.01823 
319 1 319 0.479987 0.279936 0 2.50793 
320 1 320 0.48002 0.319934 0 2.80518 
321 1 321 0.480045 0.359924 0 2.9415 
322 1 322 0.480064 0.399908 0 2.94469 
323 1 323 0.480084 0.439892 0 3.05395 
324 1 324 0.480104 0.479874 0 3.4715 
325 1 325 0.480114 0.519859 0 3.59745 
326 1 326 0.480112 0.559843 0 3.00138 
327 1 327 0.480091 0.599833 0 1.75132 
328 1 328 0.480061 0.639818 0 -0.0774433 
329 1 329 0.480036 0.679803 0 -1.62982 
330 1 330 0.480017 0.719788 0 -2.61133 
331 1 331 0.480005 0.75977 0 -3.08981 
332 1 332 0.479989 0.799753 0 -3.3466 
333 1 333 0.479971 0.839736 0 -3.73487 
334 1 334 0.47995 0.879725 0 -4.29307 
335 1 335 0.479932 0.919721 0 -5.28705 
336 1 336 0.479916 0.959726 0 -6.21992 
337 1 337 0.479901 0.999738 0 -6.54294 
338 1 338 0.52 0 0 0 
339 1 339 0.519974 0.0399919 0 0.888896 
340 1 340 0.519945 0.079979 0 0.793538 
341 1 341 0.519923 0.119971 0 0.805191 
342 1 342 0.519916 0.159965 0 1.29462 
343 1 343 0.519928 0.199958 0 1.94989 
344 1 344 0.519953 0.239952 0 2.44677 
345 1 345 0.51999 0.279946 0 2.56146 
346 1 346 0.520025 0.319943 0 2.46983 
347 1 347 0.520057 0.359933 0 2.5284 
348 1 348 0.520081 0.399916 0 2.8136 
349 1 349 0.520103 0.439901 0 3.01893 
350 1 350 0.520121 0.47988 0 3.23166 
351 1 351 0.520128 0.519866 0 3.08231 
352 1 352 0.520127 0.559852 0 2.27092 
353 1 353 0.520106 0.599841 0 0.971883 
354 1 354 0.520079 0.639823 0 -0.779292 
355 1 355 0.520055 0.679806 0 -2.27652 
356 1 356 0.520032 0.71979 0 -3.4295 
357 1 357 0.520019 0.759771 0 -3.95694 
358 1 358 0.52 0.799759 0 -4.10062 
359 1 359 0.519979 0.839743 0 -4.47275 
360 1 360 0.51995 0.879735 0 -5.11118 
361 1 361 0.519921 0.919736 0 -6.05884 
362 1 362 0.519896 0.959739 0 -6.30416 
363 1 363 0.519875 0.999751 0 -6.09193 
364 1 364 0.56 0 0 0 
365 1 365 0.559982 0.0399999 0 1.0821 
366 1 366 0.559952 0.0799922 0 1.36752 
367 1 367 0.559928 0.119984 0 1.68185 
368 1 368 0.559921 0.159978 0 2.29352 
369 1 369 0.559933 0.199969 0 2.90549 
370 1 370 0.559956 0.239962 0 3.03847 
371 1 371 0.559989 0.279956 0 2.68245 
372 1 372 0.560025 0.319951 0 2.32026 
373 1 373 0.560064 0.359943 0 2.38118 
374 1 374 0.560093 0.399928 0 2.8403 
375 1 375 0.560115 0.439911 0 3.14164 
376 1 376 0.560132 0.479892 0 3.16513 
377 1 377 0.560137 0.51988 0 2.59494 
378 1 378 0.560132 0.559866 0 1.43182 
379 1 379 0.560112 0.599853 0 0.218748 
380 1 380 0.560088 0.639835 0 -1.19791 
381 1 381 0.560066 0.679816 0 -2.55099 
382 1 382 0.560045 0.719797 0 -3.82747 
383 1 383 0.560032 0.75978 0 -4.47844 
384 1 384 0.560011 0.79977 0 -4.64342 
385 1 385 0.559987 0.839759 0 -5.03716 
386 1 386 0.55995 0.879755 0 -5.7431 
387 1 387 0.559912 0.919757 0 -6.59266 
388 1 388 0.559882 0.959761 0 -6.11232 
389 1 389 0.559857 0.999771 0 -5.34659 
390 1 390 0.6 0 0 0 
391 1 391 0.599994 0.0400062 0 1.23692 
392 1 392 0.599967 0.0800026 0 2.01056 
393 1 393 0.599941 0.119996 0 2.63343 
394 1 394 0.599932 0.159987 0 3.27616 
395 1 395 0.599942 0.199976 0 3.75262 
396 1 396 0.59996 0.239967 0 3.46424 
397 1 397 0.599987 0.279961 0 2.72164 
398 1 398 0.600023 0.319955 0 2.20733 
399 1 399 0.600066 0.359948 0 2.25106 
400 1 400 0.6001 0.399936 0 2.82725 
401 1 401 0.600124 0.439921 0 3.19441 
402 1 402 0.600141 0.479905 0 2.89004 
403 1 403 0.600146 0.519895 0 1.85774 
404 1 404 0.600144 0.559883 0 0.50876 
405 1 405 0.600134 0.59987 0 -0.488753 
406 1 406 0.600119 0.639852 0 -1.50145 
407 1 407 0.600099 0.679831 0 -2.55098 
408 1 408 0.600072 0.719811 0 -3.72847 
409 1 409 0.600054 0.759796 0 -4.47606 
410 1 410 0.600027 0.799788 0 -4.74495 
411 1 411 0.599999 0.839781 0 -5.21289 
412 1 412 0.599956 0.87978 0 -5.93368 
413 1 413 0.59991 0.919783 0 -6.65043 
414 1 414 0.599874 0.959785 0 -5.72962 
415 1 415 0.599847 0.999793 0 -4.63669 
416 1 416 0.64 0 0 0 
417 1 417 0.640003 0.04001 0 1.36312 
418 1 418 0.639981 0.0800095 0 2.51865 
419 1 419 0.639956 0.120002 0 3.4008 
420 1 420 0.639947 0.159991 0 3.96519 
421 1 421 0.639952 0.199979 0 4.16812 
422 1 422 0.639964 0.239969 0 3.49654 
423 1 423 0.639983 0.279962 0 2.46284 
424 1 424 0.640017 0.319955 0 1.78406 
425 1 425 0.640063 0.35995 0 1.72116 
426 1 426 0.640101 0.399941 0 2.42226 
427 1 427 0.640126 0.439931 0 2.88644 
428 1 428 0.640143 0.47992 0 2.2482 
429 1 429 0.640149 0.519911 0 0.976464 
430 1 430 0.640147 0.559901 0 -0.327038 
431 1 431 0.640144 0.59989 0 -1.13773 
432 1 432 0.640132 0.639872 0 -1.80734 
433 1 433 0.640117 0.679852 0 -2.44512 
434 1 434 0.640092 0.719832 0 -3.34963 
435 1 435 0.64007 0.759819 0 -4.20418 
436 1 436 0.640039 0.799811 0 -4.60348 
437 1 437 0.640007 0.839808 0 -5.14086 
438 1 438 0.63996 0.879808 0 -5.82733 
439 1 439 0.639909 0.91981 0 -6.30933 
440 1 440 0.639872 0.95981 0 -5.16809 
441 1 441 0.639844 0.999814 0 -3.97906 
442 1 442 0.68 0 0 0 
443 1 443 0.680013 0.0400108 0 1.51935 
444 1 444 0.679998 0.0800134 0 2.93838 
445 1 445 0.679976 0.120005 0 3.94277 
446 1 446 0.679966 0.159992 0 4.28541 
447 1 447 0.679965 0.199978 0 4.03559 
448 1 448 0.679972 0.239966 0 2.92704 
449 1 449 0.679986 0.279959 0 1.65353 
450 1 450 0.680017 0.319951 0 0.925533 
451 1 451 0.680061 0.359948 0 0.845523 
452 1 452 0.680101 0.399942 0 1.52799 
453 1 453 0.680129 0.439937 0 1.94545 
454 1 454 0.680146 0.479931 0 1.11881 
455 1 455 0.680154 0.519925 0 -0.183352 
456 1 456 0.680158 0.559918 0 -1.40895 
457 1 457 0.680167 0.599908 0 -1.93103 
458 1 458 0.680163 0.639893 0 -1.9786 
459 1 459 0.680151 0.679875 0 -2.02151 
460 1 460 0.680121 0.719858 0 -2.55536 
461 1 461 0.68009 0.759846 0 -3.43766 
462 1 462 0.680053 0.799837 0 -3.921 
463 1 463 0.680015 0.839838 0 -4.57941 
464 1 464 0.679967 0.879836 0 -5.29252 
465 1 465 0.679915 0.919838 0 -5.55122 
466 1 466 0.679875 0.959834 0 -4.51629 
467 1 467 0.679847 0.999834 0 -3.52758 
468 1 468 0.72 0 0 0 
469 1 469 0.720016 0.0400095 0 1.63048 
470 1 470 0.720009 0.0800141 0 3.25779 
471 1 471 0.719996 0.120007 0 4.24537 
472 1 472 0.719988 0.159993 0 4.24096 
473 1 473 0.719982 0.19998 0 3.53901 
474 1 474 0.719983 0.239968 0 2.08514 
475 1 475 0.719993 0.279959 0 0.642898 
476 1 476 0.72002 0.319951 0 -0.127368 
477 1 477 0.72006 0.359948 0 -0.250927 
478 1 478 0.7201 0.399945 0 0.293125 
479 1 479 0.720129 0.439944 0 0.639917 
480 1 480 0.720146 0.479942 0 -0.116038 
481 1 481 0.720157 0.519939 0 -1.20754 
482 1 482 0.720161 0.559935 0 -2.2558 
483 1 483 0.720171 0.599925 0 -2.46373 
484 1 484 0.720169 0.639914 0 -2.06026 
485 1 485 0.720161 0.6799 0 -1.72447 
486 1 486 0.720132 0.719885 0 -1.80924 
487 1 487 0.720098 0.759875 0 -2.55482 
488 1 488 0.720059 0.799867 0 -3.12247 
489 1 489 0.720015 0.839868 0 -3.88023 
490 1 490 0.719969 0.879865 0 -4.4817 
491 1 491 0.719921 0.919864 0 -4.43137 
492 1 492 0.719882 0.959858 0 -3.74996 
493 1 493 0.719855 0.999854 0 -3.20228 
494 1 494 0.76 0 0 0 
495 1 495 0.760018 0.0400078 0 1.62204 
496 1 496 0.760022 0.0800136 0 3.29242 
497 1 497 0.760018 0.12001 0 4.24383 
498 1 498 0.760011 0.159997 0 3.97706 
499 1 499 0.760002 0.199986 0 2.88755 
500 1 500 0.760001 0.239972 0 1.23333 
501 1 501 0.760009 0.279962 0 -0.204594 
502 1 502 0.760032 0.319952 0 -0.965677 
503 1 503 0.760067 0.359949 0 -1.17241 
504 1 504 0.760105 0.399948 0 -0.81079 
505 1 505 0.760132 0.439949 0 -0.529707 
506 1 506 0.760149 0.47995 0 -1.19457 
507 1 507 0.760162 0.519949 0 -1.99549 
508 1 508 0.760169 0.559946 0 -2.67945 
509 1 509 0.760188 0.599939 0 -2.57441 
510 1 510 0.760191 0.639933 0 -1.91323 
511 1 511 0.760184 0.679923 0 -1.26789 
512 1 512 0.760152 0.719911 0 -0.83798 
513 1 513 0.76011 0.759905 0 -1.42964 
514 1 514 0.760067 0.799897 0 -2.1428 
515 1 515 0.760018 0.839898 0 -2.98421 
516 1 516 0.759975 0.879893 0 -3.49625 
517 1 517 0.75993 0.919892 0 -3.26268 
518 1 518 0.759891 0.959883 0 -3.06715 
519 1 519 0.759865 0.999876 0 -3.03408 
520 1 520 0.8 0 0 0 
521 1 521 0.800012 0.0400065 0 1.45716 
522 1 522 0.800024 0.0800144 0 3.09743 
523 1 523 0.800032 0.120014 0 4.08205 
524 1 524 0.800031 0.160004 0 3.73884 
525 1 525 0.800023 0.199996 0 2.42836 
526 1 526 0.800021 0.239982 0 0.737706 
527 1 527 0.800028 0.279971 0 -0.522407 
528 1 528 0.800047 0.31996 0 -1.19377 
529 1 529 0.800074 0.359955 0 -1.48846 
530 1 530 0.800107 0.399954 0 -1.38528 
531 1 531 0.800134 0.439956 0 -1.20594 
532 1 532 0.800151 0.479958 0 -1.63915 
533 1 533 0.800164 0.519957 0 -1.98363 
534 1 534 0.80017 0.559956 0 -2.32281 
535 1 535 0.800185 0.599952 0 -2.17676 
536 1 536 0.800183 0.63995 0 -1.50568 
537 1 537 0.800177 0.679945 0 -0.741065 
538 1 538 0.800148 0.719939 0 -0.0702087 
539 1 539 0.800107 0.759936 0 -0.564959 
540 1 540 0.800062 0.799928 0 -1.28902 
541 1 541 0.800013 0.83993 0 -2.07502 
542 1 542 0.799974 0.879924 0 -2.47082 
543 1 543 0.799938 0.919921 0 -2.11938 
544 1 544 0.799904 0.95991 0 -2.36521 
545 1 545 0.799879 0.999903 0 -2.78948 
546 1 546 0.84 0 0 0 
547 1 547 0.840008 0.0400068 0 1.0201 
548 1 548 0.840027 0.080015 0 2.60253 
549 1 549 0.840044 0.120019 0 3.65301 
550 1 550 0.840048 0.160012 0 3.35954 
551 1 551 0.840041 0.200006 0 2.18484 
552 1 552 0.84004 0.239993 0 0.791499 
553 1 553 0.840048 0.279981 0 -0.141043 
554 1 554 0.840063 0.319968 0 -0.652732 
555 1 555 0.840083 0.359961 0 -0.978374 
556 1 556 0.840111 0.39996 0 -1.14717 
557 1 557 0.840137 0.439961 0 -1.11059 
558 1 558 0.840152 0.479963 0 -1.27001 
559 1 559 0.840167 0.519962 0 -1.19891 
560 1 560 0.840174 0.559963 0 -1.32778 
561 1 561 0.840192 0.599961 0 -1.28794 
562 1 562 0.840192 0.639963 0 -0.806225 
563 1 563 0.840186 0.679966 0 -0.243477 
564 1 564 0.840156 0.719966 0 0.419587 
565 1 565 0.84011 0.759966 0 0.108502 
566 1 566 0.840064 0.799961 0 -0.594092 
567 1 567 0.840015 0.839962 0 -1.36252 
568 1 568 0.839977 0.879955 0 -1.61794 
569 1 569 0.839946 0.919952 0 -1.18786 
570 1 570 0.839916 0.95994 0 -1.71971 
571 1 571 0.839891 0.999933 0 -2.43268 
572 1 572 0.88 0 0 0 
573 1 573 0.88 0.0400084 0 0.467038 
574 1 574 0.880023 0.0800148 0 1.89484 
575 1 575 0.880047 0.120021 0 3.06746 
576 1 576 0.880055 0.160019 0 3.01804 
577 1 577 0.880053 0.200015 0 2.22816 
578 1 578 0.880055 0.240003 0 1.34797 
579 1 579 0.880062 0.279992 0 0.826617 
580 1 580 0.880073 0.319978 0 0.45962 
581 1 581 0.880086 0.35997 0 0.11863 
582 1 582 0.880108 0.399967 0 -0.285457 
583 1 583 0.880132 0.439967 0 -0.411249 
584 1 584 0.880147 0.479969 0 -0.373452 
585 1 585 0.880162 0.519968 0 -0.0267029 
586 1 586 0.880165 0.55997 0 -0.00428479 
587 1 587 0.880172 0.599972 0 -0.157334 
588 1 588 0.880165 0.639979 0 -0.112689 
589 1 589 0.880157 0.679988 0 0.0167183 
590 1 590 0.880133 0.719993 0 0.569985 
591 1 591 0.880094 0.759998 0 0.491387 
592 1 592 0.880051 0.799995 0 -0.142493 
593 1 593 0.880006 0.839995 0 -0.745577 
594 1 594 0.879973 0.879987 0 -0.789236 
595 1 595 0.879951 0.919984 0 -0.445118 
596 1 596 0.879927 0.959973 0 -1.14461 
597 1 597 0.879902 0.999967 0 -1.94633 
598 1 598 0.92 0 0 0 
599 1 599 0.92 0.0400082 0 0.0732316 
600 1 600 0.920023 0.080013 0 1.2203 
601 1 601 0.920047 0.12002 0 2.38239 
602 1 602 0.920057 0.160022 0 2.66919 
603 1 603 0.920058 0.200019 0 2.38385 
604 1 604 0.920062 0.240009 0 2.05556 
605 1 605 0.920069 0.279998 0 1.98263 
606 1 606 0.920076 0.319986 0 1.752 
607 1 607 0.920083 0.359978 0 1.33572 
608 1 608 0.920098 0.399974 0 0.685601 
609 1 609 0.920121 0.439972 0 0.420315 
610 1 610 0.920135 0.479974 0 0.67579 
611 1 611 0.920152 0.519974 0 1.28847 
612 1 612 0.920156 0.559976 0 1.46058 
613 1 613 0.920163 0.599983 0 1.07099 
614 1 614 0.920158 0.639993 0 0.624501 
615 1 615 0.920148 0.680008 0 0.29167 
616 1 616 0.920124 0.720019 0 0.559562 
617 1 617 0.920087 0.760029 0 0.612381 
618 1 618 0.920044 0.800029 0 0.16969 
619 1 619 0.920004 0.840029 0 -0.149777 
620 1 620 0.919972 0.880023 0 -0.0613727 
621 1 621 0.919953 0.920019 0 0.123297 
622 1 622 0.919933 0.96001 0 -0.494738 
623 1 623 0.919907 1.00001 0 -1.17519 
624 1 624 0.96 0 0 0 
625 1 625 0.959997 0.0400057 0 -0.12051 
626 1 626 0.960016 0.0800091 0 0.711431 
627 1 627 0.960037 0.120016 0 1.69532 
628 1 628 0.960051 0.16002 0 2.23739 
629 1 629 0.960057 0.20002 0 2.51132 
630 1 630 0.960061 0.240012 0 2.72169 
631 1 631 0.960065 0.280004 0 2.96563 
632 1 632 0.960068 0.319995 0 2.79284 
633 1 633 0.960071 0.359989 0 2.31403 
634 1 634 0.960082 0.399985 0 1.50786 
635 1 635 0.960102 0.439983 0 1.15828 
636 1 636 0.960116 0.479984 0 1.55637 
637 1 637 0.960131 0.519985 0 2.28171 
638 1 638 0.96013 0.55999 0 2.53592 
639 1 639 0.960124 0.6 0 1.99356 
640 1 640 0.960111 0.640013 0 1.18346 
641 1 641 0.9601 0.680033 0 0.461965 
642 1 642 0.960084 0.720048 0 0.424335 
643 1 643 0.960057 0.760062 0 0.696928 
644 1 644 0.960023 0.800065 0 0.639645 
645 1 645 0.959993 0.840066 0 0.641427 
646 1 646 0.959965 0.880059 0 0.780363 
647 1 647 0.95995 0.920055 0 0.729166 
648 1 648 0.959932 0.96005 0 0.128358 
649 1 649 0.959904 1.00005 0 -0.461146 
650 1 650 1 0 0 0 
651 1 651 1 0.0400018 0 0.108049 
652 1 652 1.00001 0.0800021 0 0.631529 
653 1 653 1.00003 0.120007 0 1.26828 
654 1 654 1.00004 0.160013 0 1.88969 
655 1 655 1.00005 0.200015 0 2.56472 
656 1 656 1.00005 0.240011 0 3.1647 
657 1 657 1.00005 0.280008 0 3.51876 
658 1 658 1.00005 0.320003 0 3.25159 
659 1 659 1.00005 0.36 0 2.71078 
660 1 660 1.00006 0.399998 0 1.86916 
661 1 661 1.00008 0.439997 0 1.50247 
662 1 662 1.00009 0.479998 0 2.01232 
663 1 663 1.00011 0.520001 0 2.84284 
664 1 664 1.00011 0.560007 0 3.25984 
665 1 665 1.0001 0.60002 0 2.73102 
666 1 666 1.00009 0.640035 0 1.68053 
667 1 667 1.00008 0.680059 0 0.644937 
668 1 668 1.00006 0.720078 0 0.333626 
669 1 669 1.00004 0.760096 0 0.786081 
670 1 670 1.00001 0.800103 0 1.09473 
671 1 671 0.999986 0.840104 0 1.40343 
672 1 672 0.999959 0.8801 0 1.62675 
673 1 673 0.999944 0.920096 0 1.4025 
674 1 674 0.999924 0.960095 0 0.757581 
675 1 675 0.99989 1.0001 0 0.189923 
676 1 676 1.04 0 0 0 
677 1 677 1.04 0.0399964 0 0.683871 
678 1 678 1.04001 0.0799947 0 0.886034 
679 1 679 1.04001 0.119998 0 1.03884 
680 1 680 1.04003 0.160005 0 1.6232 
681 1 681 1.04004 0.200008 0 2.5032 
682 1 682 1.04004 0.24001 0 3.31144 
683 1 683 1.04004 0.280011 0 3.7307 
684 1 684 1.04003 0.320014 0 3.39716 
685 1 685 1.04003 0.360015 0 2.7705 
686 1 686 1.04004 0.400016 0 1.89734 
687 1 687 1.04005 0.440018 0 1.53042 
688 1 688 1.04007 0.480021 0 2.07867 
689 1 689 1.04008 0.520026 0 2.92007 
690 1 690 1.04007 0.560034 0 3.44634 
691 1 691 1.04006 0.600049 0 3.01144 
692 1 692 1.04004 0.640065 0 1.90321 
693 1 693 1.04002 0.68009 0 0.765136 
694 1 694 1.04001 0.720111 0 0.282407 
695 1 695 1.04 0.760131 0 0.825455 
696 1 696 1.03999 0.80014 0 1.50965 
697 1 697 1.03997 0.840144 0 2.18058 
698 1 698 1.03995 0.880143 0 2.45267 
699 1 699 1.03993 0.920142 0 2.06281 
700 1 700 1.03991 0.960146 0 1.36269 
701 1 701 1.03987 1.00016 0 0.788364 
702 1 702 1.08 0 0 0 
703 1 703 1.08 0.0399895 0 1.36564 
704 1 704 1.08 0.0799857 0 1.34711 
705 1 705 1.08 0.119986 0 1.03091 
706 1 706 1.08001 0.159993 0 1.51467 
707 1 707 1.08002 0.199998 0 2.52316 
708 1 708 1.08002 0.240005 0 3.41772 
709 1 709 1.08001 0.280013 0 3.71782 
710 1 710 1.08001 0.320022 0 3.23881 
711 1 711 1.08001 0.360028 0 2.58581 
712 1 712 1.08001 0.400033 0 1.80593 
713 1 713 1.08003 0.440038 0 1.49488 
714 1 714 1.08004 0.480043 0 1.96015 
715 1 715 1.08005 0.520052 0 2.6315 
716 1 716 1.08005 0.560061 0 3.13316 
717 1 717 1.08003 0.600078 0 2.86973 
718 1 718 1.08002 0.640094 0 1.92111 
719 1 719 1.08 0.68012 0 0.835863 
720 1 720 1.07999 0.720142 0 0.275437 
721 1 721 1.07998 0.760164 0 0.895768 
722 1 722 1.07997 0.800178 0 1.91462 
723 1 723 1.07996 0.840185 0 2.86566 
724 1 724 1.07993 0.880188 0 3.13098 
725 1 725 1.07992 0.920191 0 2.63874 
726 1 726 1.07988 0.9602 0 1.88049 
727 1 727 1.07983 1.00022 0 1.26136 
728 1 728 1.12 0 0 0 
729 1 729 1.11999 0.0399855 0 1.86124 
730 1 730 1.11998 0.0799803 0 1.78979 
731 1 731 1.11998 0.119978 0 1.25155 
732 1 732 1.11999 0.159983 0 1.60767 
733 1 733 1.11999 0.19999 0 2.53139 
734 1 734 1.11999 0.240002 0 3.42043 
735 1 735 1.11998 0.280014 0 3.71565 
736 1 736 1.11998 0.320029 0 3.282 
737 1 737 1.11998 0.36004 0 2.67464 
738 1 738 1.11998 0.400049 0 1.92861 
739 1 739 1.12 0.440059 0 1.53332 
740 1 740 1.12001 0.480067 0 1.7234 
741 1 741 1.12002 0.52008 0 2.15555 
742 1 742 1.12001 0.560091 0 2.62835 
743 1 743 1.11998 0.60011 0 2.56583 
744 1 744 1.11996 0.640126 0 1.9048 
745 1 745 1.11994 0.68015 0 1.03913 
746 1 746 1.11993 0.720173 0 0.517619 
747 1 747 1.11993 0.760196 0 1.07575 
748 1 748 1.11993 0.800213 0 2.16411 
749 1 749 1.11993 0.840225 0 3.27516 
750 1 750 1.11991 0.880233 0 3.61341 
751 1 751 1.11989 0.920241 0 3.15987 
752 1 752 1.11985 0.960256 0 2.39939 
753 1 753 1.1198 1.00027 0 1.7481 
754 1 754 1.16 0 0 0 
755 1 755 1.15999 0.0399824 0 2.00462 
756 1 756 1.15997 0.0799742 0 1.9602 
757 1 757 1.15996 0.119969 0 1.41629 
758 1 758 1.15996 0.159972 0 1.76613 
759 1 759 1.15996 0.19998 0 2.67455 
760 1 760 1.15996 0.239995 0 3.60335 
761 1 761 1.15995 0.28001 0 3.91068 
762 1 762 1.15994 0.320028 0 3.52811 
763 1 763 1.15995 0.360043 0 2.94779 
764 1 764 1.15995 0.400055 0 2.23659 
765 1 765 1.15997 0.44007 0 1.81211 
766 1 766 1.15997 0.480081 0 1.70213 
767 1 767 1.15998 0.520099 0 1.77943 
768 1 768 1.15997 0.560112 0 2.08207 
769 1 769 1.15995 0.600133 0 2.20362 
770 1 770 1.15993 0.64015 0 1.98759 
771 1 771 1.15991 0.680174 0 1.50135 
772 1 772 1.15989 0.720197 0 1.14065 
773 1 773 1.1599 0.760223 0 1.61191 
774 1 774 1.1599 0.800244 0 2.58011 
775 1 775 1.1599 0.840262 0 3.6802 
776 1 776 1.15988 0.880277 0 4.0397 
777 1 777 1.15985 0.920291 0 3.60978 
778 1 778 1.1598 0.96031 0 2.85251 
779 1 779 1.15975 1.00033 0 2.20083 
780 1 780 1.2 0 0 0 
781 1 781 1.19998 0.0399824 0 1.59429 
782 1 782 1.19995 0.079973 0 1.73951 
783 1 783 1.19994 0.119966 0 1.58753 
784 1 784 1.19993 0.159966 0 2.02844 
785 1 785 1.19993 0.199972 0 2.77636 
786 1 786 1.19992 0.239989 0 3.64752 
787 1 787 1.19991 0.280004 0 4.06568 
788 1 788 1.1999 0.320022 0 3.93982 
789 1 789 1.19991 0.360039 0 3.55289 
790 1 790 1.19991 0.400054 0 2.91607 
791 1 791 1.19992 0.440073 0 2.41258 
792 1 792 1.19993 0.480088 0 1.931 
793 1 793 1.19993 0.520111 0 1.6574 