ITEM: TIMESTEP
0
ITEM: NUMBER OF ATOMS
7127
ITEM: BOX BOUNDS sm sm sm
0 4
0 2
0 0
ITEM: ATOMS id type tag x y z vx 
0 1 0 0 0 0 0 
1 1 1 0 0.04 0 0 
2 1 2 0 0.08 0 0 
3 1 3 0 0.12 0 0 
4 1 4 0 0.16 0 0 
5 1 5 0 0.2 0 0 
6 1 6 0 0.24 0 0 
7 1 7 0 0.28 0 0 
8 1 8 0 0.32 0 0 
9 1 9 0 0.36 0 0 
10 1 10 0 0.4 0 0 
11 1 11 0 0.44 0 0 
12 1 12 0 0.48 0 0 
13 1 13 0 0.52 0 0 
14 1 14 0 0.56 0 0 
15 1 15 0 0.6 0 0 
16 1 16 0 0.64 0 0 
17 1 17 0 0.68 0 0 
18 1 18 0 0.72 0 0 
19 1 19 0 0.76 0 0 
20 1 20 0 0.8 0 0 
21 1 21 0 0.84 0 0 
22 1 22 0 0.88 0 0 
23 1 23 0 0.92 0 0 
24 1 24 0 0.96 0 0 
25 1 25 0 1 0 0 
26 1 26 0.04 0 0 0 
27 1 27 0.0399957 0.0399965 0 0.032755 
28 1 28 0.0399936 0.0799959 0 -0.0237704 
29 1 29 0.0399885 0.119995 0 -0.15077 
30 1 30 0.0399845 0.159994 0 -0.0734123 
31 1 31 0.0399836 0.199994 0 -0.047029 
32 1 32 0.0399795 0.239994 0 -0.0466244 
33 1 33 0.0399791 0.279993 0 0.0688607 
34 1 34 0.0399753 0.319992 0 0.154139 
35 1 35 0.0399769 0.359993 0 0.249648 
36 1 36 0.0399743 0.399996 0 0.308493 
37 1 37 0.0399761 0.439998 0 0.195999 
38 1 38 0.0399765 0.48 0 0.282405 
39 1 39 0.039979 0.52 0 0.300312 
40 1 40 0.0399788 0.560001 0 0.30929 
41 1 41 0.0399821 0.600002 0 0.471878 
42 1 42 0.0399791 0.640004 0 0.487016 
43 1 43 0.0399835 0.680007 0 0.38581 
44 1 44 0.0399825 0.720008 0 0.36296 
45 1 45 0.0399848 0.760008 0 0.0726838 
46 1 46 0.039987 0.800006 0 0.0210535 
47 1 47 0.0399853 0.840003 0 -0.08931 
48 1 48 0.0399913 0.879998 0 0.00855888 
49 1 49 0.0399844 0.920001 0 0.276342 
50 1 50 0.0399967 0.959996 0 0.845891 
51 1 51 0.0399739 1.00002 0 1.63023 
52 1 52 0.08 0 0 0 
53 1 53 0.0799928 0.0399954 0 -0.0686235 
54 1 54 0.0799851 0.0799907 0 -0.0381826 
55 1 55 0.0799778 0.11999 0 -0.101615 
56 1 56 0.0799702 0.159989 0 0.117811 
57 1 57 0.0799658 0.199989 0 0.281581 
58 1 58 0.0799601 0.239989 0 0.339037 
59 1 59 0.0799576 0.27999 0 0.437677 
60 1 60 0.0799523 0.319989 0 0.468195 
61 1 61 0.0799506 0.359992 0 0.510948 
62 1 62 0.0799477 0.399994 0 0.564727 
63 1 63 0.0799483 0.439999 0 0.379452 
64 1 64 0.0799532 0.48 0 0.443807 
65 1 65 0.079955 0.520002 0 0.407613 
66 1 66 0.0799596 0.559999 0 0.417566 
67 1 67 0.0799582 0.600002 0 0.661474 
68 1 68 0.0799595 0.64 0 0.776306 
69 1 69 0.0799597 0.680006 0 0.775242 
70 1 70 0.0799666 0.720002 0 0.692321 
71 1 71 0.0799663 0.760006 0 0.209045 
72 1 72 0.0799762 0.8 0 0.00498684 
73 1 73 0.0799736 0.840001 0 -0.0139402 
74 1 74 0.0799792 0.879998 0 0.254074 
75 1 75 0.0799768 0.919999 0 0.931521 
76 1 76 0.0799747 0.960008 0 1.83536 
77 1 77 0.0799771 1 0 2.63611 
78 1 78 0.12 0 0 0 
79 1 79 0.119989 0.0399913 0 -0.187636 
80 1 80 0.119976 0.079987 0 -0.0603057 
81 1 81 0.119965 0.119985 0 0.0721031 
82 1 82 0.119955 0.159983 0 0.554364 
83 1 83 0.119947 0.199983 0 0.931399 
84 1 84 0.11994 0.239984 0 1.07056 
85 1 85 0.119934 0.279986 0 1.06513 
86 1 86 0.119929 0.319988 0 0.954835 
87 1 87 0.119923 0.359992 0 0.886482 
88 1 88 0.119921 0.399995 0 0.823521 
89 1 89 0.119922 0.439998 0 0.546558 
90 1 90 0.11993 0.479999 0 0.45977 
91 1 91 0.119934 0.519998 0 0.323937 
92 1 92 0.119939 0.559995 0 0.337712 
93 1 93 0.119938 0.599994 0 0.63593 
94 1 94 0.119938 0.639993 0 0.871337 
95 1 95 0.119942 0.679993 0 1.02935 
96 1 96 0.119946 0.719993 0 0.895001 
97 1 97 0.119954 0.759991 0 0.360216 
98 1 98 0.119959 0.799993 0 0.0866565 
99 1 99 0.119962 0.839992 0 0.0431928 
100 1 100 0.119968 0.879995 0 0.514381 
101 1 101 0.119963 0.920001 0 1.57327 
102 1 102 0.119967 0.959998 0 2.68725 
103 1 103 0.119969 1.00001 0 3.40789 
104 1 104 0.16 0 0 0 
105 1 105 0.159983 0.0399892 0 -0.184223 
106 1 106 0.159966 0.0799834 0 -0.0102768 
107 1 107 0.159953 0.119979 0 0.346522 
108 1 108 0.159939 0.159978 0 1.07802 
109 1 109 0.159928 0.199977 0 1.64377 
110 1 110 0.159919 0.239978 0 1.90136 
111 1 111 0.15991 0.27998 0 1.82714 
112 1 112 0.159902 0.319984 0 1.58641 
113 1 113 0.159894 0.359988 0 1.37142 
114 1 114 0.159892 0.399992 0 1.05313 
115 1 115 0.159894 0.439994 0 0.625001 
116 1 116 0.159903 0.479994 0 0.316537 
117 1 117 0.15991 0.519992 0 0.0714259 
118 1 118 0.159916 0.559987 0 0.134425 
119 1 119 0.159915 0.599984 0 0.442105 
120 1 120 0.159915 0.639979 0 0.87498 
121 1 121 0.159917 0.679977 0 1.16049 
122 1 122 0.159924 0.719976 0 1.01896 
123 1 123 0.159933 0.759979 0 0.564536 
124 1 124 0.159941 0.799978 0 0.332704 
125 1 125 0.159944 0.839986 0 0.302312 
126 1 126 0.159951 0.879986 0 0.849849 
127 1 127 0.15995 0.919994 0 2.04585 
128 1 128 0.159955 0.959998 0 3.30432 
129 1 129 0.159957 1 0 4.06958 
130 1 130 0.2 0 0 0 
131 1 131 0.199977 0.0399873 0 -0.167609 
132 1 132 0.199955 0.0799788 0 0.0370787 
133 1 133 0.199938 0.119973 0 0.628203 
134 1 134 0.199922 0.15997 0 1.53607 
135 1 135 0.199909 0.199969 0 2.23187 
136 1 136 0.199897 0.23997 0 2.61142 
137 1 137 0.199884 0.279972 0 2.51932 
138 1 138 0.199875 0.319976 0 2.16709 
139 1 139 0.199866 0.35998 0 1.74454 
140 1 140 0.199864 0.399983 0 1.19712 
141 1 141 0.199868 0.439985 0 0.685738 
142 1 142 0.199877 0.479982 0 0.197232 
143 1 143 0.199888 0.519981 0 -0.190259 
144 1 144 0.199894 0.559974 0 -0.0945007 
145 1 145 0.199893 0.59997 0 0.166485 
146 1 146 0.199896 0.639963 0 0.798447 
147 1 147 0.199894 0.679961 0 1.23977 
148 1 148 0.199903 0.719959 0 1.10838 
149 1 149 0.19991 0.759963 0 0.826808 
150 1 150 0.199919 0.799967 0 0.616847 
151 1 151 0.199925 0.839973 0 0.730187 
152 1 152 0.199932 0.879979 0 1.38713 
153 1 153 0.199935 0.919985 0 2.49434 
154 1 154 0.199941 0.959991 0 3.75357 
155 1 155 0.199947 0.999999 0 4.51486 
156 1 156 0.24 0 0 0 
157 1 157 0.23997 0.0399851 0 -0.176333 
158 1 158 0.239944 0.079974 0 0.0041664 
159 1 159 0.239924 0.119967 0 0.72041 
160 1 160 0.239906 0.159961 0 1.72063 
161 1 161 0.23989 0.199958 0 2.56848 
162 1 162 0.239874 0.239957 0 3.11321 
163 1 163 0.239859 0.279959 0 3.03215 
164 1 164 0.239846 0.319962 0 2.61685 
165 1 165 0.239836 0.359966 0 2.03553 
166 1 166 0.239833 0.399967 0 1.30876 
167 1 167 0.239838 0.439969 0 0.683941 
168 1 168 0.239847 0.479966 0 0.0712458 
169 1 169 0.239859 0.519964 0 -0.392551 
170 1 170 0.239865 0.55996 0 -0.275437 
171 1 171 0.239866 0.599954 0 -0.0218814 
172 1 172 0.239868 0.639948 0 0.735212 
173 1 173 0.239865 0.679944 0 1.32116 
174 1 174 0.239873 0.719942 0 1.29586 
175 1 175 0.23988 0.759946 0 1.22475 
176 1 176 0.23989 0.799952 0 0.994921 
177 1 177 0.2399 0.839961 0 1.16258 
178 1 178 0.239909 0.879967 0 1.9407 
179 1 179 0.239915 0.919977 0 2.93108 
180 1 180 0.239925 0.959982 0 4.04952 
181 1 181 0.239931 0.99999 0 4.73626 
182 1 182 0.28 0 0 0 
183 1 183 0.279963 0.0399821 0 -0.162636 
184 1 184 0.279933 0.0799681 0 0.0144118 
185 1 185 0.27991 0.119959 0 0.726586 
186 1 186 0.279889 0.159949 0 1.68433 
187 1 187 0.279871 0.199945 0 2.63763 
188 1 188 0.279852 0.239941 0 3.29314 
189 1 189 0.279835 0.279941 0 3.27256 
190 1 190 0.27982 0.319942 0 2.91336 
191 1 191 0.27981 0.359944 0 2.2937 
192 1 192 0.279807 0.399946 0 1.48503 
193 1 193 0.279812 0.439944 0 0.74187 
194 1 194 0.279821 0.479943 0 0.092238 
195 1 195 0.279831 0.51994 0 -0.390576 
196 1 196 0.279838 0.559938 0 -0.296524 
197 1 197 0.27984 0.599936 0 -0.0304222 
198 1 198 0.279844 0.639931 0 0.730826 
199 1 199 0.27984 0.67993 0 1.38604 
200 1 200 0.279846 0.719928 0 1.51411 
201 1 201 0.279851 0.759934 0 1.63359 
202 1 202 0.27986 0.799938 0 1.49974 
203 1 203 0.279871 0.839948 0 1.73616 
204 1 204 0.279883 0.879956 0 2.52335 
205 1 205 0.279893 0.919964 0 3.35965 
206 1 206 0.279906 0.959973 0 4.15168 
207 1 207 0.279915 0.99998 0 4.61235 
208 1 208 0.32 0 0 0 
209 1 209 0.319956 0.0399788 0 -0.123451 
210 1 210 0.319924 0.0799611 0 0.0103656 
211 1 211 0.319898 0.119948 0 0.618515 
212 1 212 0.319874 0.159936 0 1.54968 
213 1 213 0.319853 0.199929 0 2.58693 
214 1 214 0.319832 0.239924 0 3.29146 
215 1 215 0.319812 0.27992 0 3.49473 
216 1 216 0.319793 0.31992 0 3.30345 
217 1 217 0.319783 0.359918 0 2.61664 
218 1 218 0.319779 0.399917 0 1.79604 
219 1 219 0.319782 0.439916 0 0.958479 
220 1 220 0.319789 0.479915 0 0.302643 
221 1 221 0.319797 0.519916 0 -0.179883 
222 1 222 0.319804 0.559915 0 -0.181791 
223 1 223 0.319807 0.599915 0 0.143098 
224 1 224 0.319809 0.639913 0 0.842321 
225 1 225 0.319807 0.679913 0 1.49509 
226 1 226 0.319811 0.719913 0 1.77384 
227 1 227 0.319815 0.759919 0 1.94292 
228 1 228 0.319826 0.799926 0 1.96222 
229 1 229 0.319837 0.839935 0 2.32111 
230 1 230 0.319852 0.879945 0 3.02434 
231 1 231 0.319865 0.919956 0 3.67022 
232 1 232 0.319884 0.959964 0 4.08032 
233 1 233 0.319896 0.999973 0 4.28131 
234 1 234 0.36 0 0 0 
235 1 235 0.359953 0.0399766 0 -0.0490357 
236 1 236 0.359918 0.0799554 0 0.0722734 
237 1 237 0.359887 0.119938 0 0.579734 
238 1 238 0.359861 0.159923 0 1.45417 
239 1 239 0.359837 0.199913 0 2.48361 
240 1 240 0.359812 0.239905 0 3.27385 
241 1 241 0.35979 0.279899 0 3.77286 
242 1 242 0.35977 0.319895 0 3.73965 
243 1 243 0.359759 0.359892 0 3.07154 
244 1 244 0.359756 0.399887 0 2.36 
245 1 245 0.359757 0.439885 0 1.48912 
246 1 246 0.359763 0.479883 0 0.788616 
247 1 247 0.359769 0.519884 0 0.294671 
248 1 248 0.359773 0.559887 0 0.174012 
249 1 249 0.359779 0.59989 0 0.457223 
250 1 250 0.359781 0.639893 0 0.99828 
251 1 251 0.35978 0.679897 0 1.54044 
252 1 252 0.359782 0.719899 0 1.94303 
253 1 253 0.359782 0.759906 0 2.19238 
254 1 254 0.359793 0.799912 0 2.3927 
255 1 255 0.359803 0.839924 0 2.82411 
256 1 256 0.35982 0.879934 0 3.39081 
257 1 257 0.359838 0.919945 0 3.83243 
258 1 258 0.35986 0.959955 0 3.88092 
259 1 259 0.359876 0.999963 0 3.8728 
260 1 260 0.4 0 0 0 
261 1 261 0.399951 0.0399745 0 -0.0241794 
262 1 262 0.399913 0.07995 0 0.14208 
263 1 263 0.399879 0.119929 0 0.610464 
264 1 264 0.399849 0.159912 0 1.41012 
265 1 265 0.39982 0.199899 0 2.38877 
266 1 266 0.399792 0.239887 0 3.31846 
267 1 267 0.399767 0.279881 0 4.09761 
268 1 268 0.399746 0.319873 0 4.26088 
269 1 269 0.399734 0.359866 0 3.82037 
270 1 270 0.399729 0.39986 0 3.19465 
271 1 271 0.399729 0.439856 0 2.22039 
272 1 272 0.399731 0.479855 0 1.48043 
273 1 273 0.399733 0.519856 0 0.908916 
274 1 274 0.399737 0.559861 0 0.682961 
275 1 275 0.39974 0.599867 0 0.85347 
276 1 276 0.399742 0.639871 0 1.13941 
277 1 277 0.399742 0.679877 0 1.62198 
278 1 278 0.399743 0.71988 0 2.11072 
279 1 279 0.399745 0.759889 0 2.42291 
280 1 280 0.399755 0.799896 0 2.84081 
281 1 281 0.399765 0.839907 0 3.25111 
282 1 282 0.399787 0.879919 0 3.652 
283 1 283 0.399808 0.91993 0 3.92595 
284 1 284 0.399834 0.95994 0 3.68203 
285 1 285 0.399854 0.999952 0 3.53869 
286 1 286 0.44 0 0 0 
287 1 287 0.439952 0.0399729 0 0.0429506 
288 1 288 0.439911 0.0799463 0 0.268165 
289 1 289 0.439873 0.119923 0 0.695111 
290 1 290 0.439838 0.159903 0 1.41941 
291 1 291 0.439804 0.199888 0 2.33261 
292 1 292 0.439771 0.239875 0 3.37056 
293 1 293 0.439744 0.279866 0 4.39269 
294 1 294 0.439722 0.319855 0 4.79051 
295 1 295 0.439711 0.359845 0 4.61776 
296 1 296 0.439705 0.399837 0 4.07476 
297 1 297 0.439705 0.43983 0 3.04772 
298 1 298 0.439706 0.479827 0 2.33768 
299 1 299 0.439704 0.519828 0 1.69496 
300 1 300 0.439707 0.559832 0 1.28343 
301 1 301 0.439708 0.59984 0 1.3086 
302 1 302 0.439711 0.639848 0 1.32456 
303 1 303 0.439714 0.679856 0 1.68842 
304 1 304 0.439712 0.719861 0 2.21741 
305 1 305 0.439713 0.759868 0 2.55111 
306 1 306 0.439722 0.799875 0 3.20017 
307 1 307 0.43973 0.839887 0 3.64227 
308 1 308 0.439755 0.879897 0 3.89126 
309 1 309 0.439779 0.919909 0 3.9838 
310 1 310 0.439808 0.959921 0 3.55569 
311 1 311 0.43983 0.999934 0 3.38913 
312 1 312 0.48 0 0 0 
313 1 313 0.479953 0.0399725 0 0.134633 
314 1 314 0.47991 0.0799444 0 0.398326 
315 1 315 0.479867 0.119919 0 0.787214 
316 1 316 0.479826 0.159898 0 1.43983 
317 1 317 0.479785 0.199882 0 2.28704 
318 1 318 0.479751 0.239868 0 3.36451 
319 1 319 0.479722 0.279856 0 4.5272 
320 1 320 0.479699 0.319842 0 5.17887 
321 1 321 0.479687 0.35983 0 5.23908 
322 1 322 0.479679 0.399819 0 4.79672 
323 1 323 0.479676 0.439811 0 3.86387 
324 1 324 0.479672 0.479807 0 3.12659 
325 1 325 0.479668 0.519808 0 2.42346 
326 1 326 0.479668 0.559811 0 1.90574 
327 1 327 0.479668 0.599817 0 1.76311 
328 1 328 0.479668 0.639824 0 1.60346 
329 1 329 0.479671 0.679831 0 1.78603 
330 1 330 0.479672 0.719836 0 2.28258 
331 1 331 0.479674 0.759843 0 2.72469 
332 1 332 0.479683 0.799849 0 3.48299 
333 1 333 0.479693 0.839859 0 3.88285 
334 1 334 0.479721 0.879869 0 4.03783 
335 1 335 0.479745 0.919881 0 3.96596 
336 1 336 0.479777 0.959894 0 3.52669 
337 1 337 0.479801 0.999909 0 3.48599 
338 1 338 0.52 0 0 0 
339 1 339 0.519956 0.0399723 0 0.289917 
340 1 340 0.519909 0.0799448 0 0.574236 
341 1 341 0.519861 0.11992 0 0.931451 
342 1 342 0.519814 0.159898 0 1.49678 
343 1 343 0.519769 0.199881 0 2.23347 
344 1 344 0.519731 0.239865 0 3.27144 
345 1 345 0.519699 0.279851 0 4.41556 
346 1 346 0.519678 0.319834 0 5.25279 
347 1 347 0.519666 0.35982 0 5.54543 
348 1 348 0.519656 0.399806 0 5.17598 
349 1 349 0.519653 0.439795 0 4.38453 
350 1 350 0.519648 0.479789 0 3.64403 
351 1 351 0.519643 0.519786 0 2.9813 
352 1 352 0.519638 0.559787 0 2.51668 
353 1 353 0.519635 0.599793 0 2.18887 
354 1 354 0.519638 0.639799 0 1.87644 
355 1 355 0.519642 0.679806 0 1.89058 
356 1 356 0.519642 0.71981 0 2.30043 
357 1 357 0.519644 0.759814 0 2.86031 
358 1 358 0.519651 0.799819 0 3.6665 
359 1 359 0.51966 0.839826 0 4.04066 
360 1 360 0.519688 0.879835 0 4.16612 
361 1 361 0.519712 0.919848 0 3.94384 
362 1 362 0.519745 0.959862 0 3.59578 
363 1 363 0.519768 0.999879 0 3.75239 
364 1 364 0.56 0 0 0 
365 1 365 0.559956 0.0399728 0 0.529122 
366 1 366 0.559906 0.0799467 0 0.856096 
367 1 367 0.559855 0.119922 0 1.16357 
368 1 368 0.559802 0.159901 0 1.59288 
369 1 369 0.559753 0.199883 0 2.15444 
370 1 370 0.559713 0.239865 0 3.1066 
371 1 371 0.559681 0.279848 0 4.12211 
372 1 372 0.55966 0.319829 0 4.99268 
373 1 373 0.559646 0.359812 0 5.44763 
374 1 374 0.559634 0.399796 0 5.18137 
375 1 375 0.559627 0.439785 0 4.57452 
376 1 376 0.559616 0.479777 0 3.8564 
377 1 377 0.559608 0.519773 0 3.31395 
378 1 378 0.559601 0.559771 0 2.95374 
379 1 379 0.559596 0.599774 0 2.5322 
380 1 380 0.559594 0.639777 0 2.22661 
381 1 381 0.559596 0.67978 0 2.0853 
382 1 382 0.559601 0.719783 0 2.34405 
383 1 383 0.559604 0.759785 0 2.88904 
384 1 384 0.559611 0.799788 0 3.57257 
385 1 385 0.559623 0.839792 0 3.90219 
386 1 386 0.55965 0.8798 0 4.01185 
387 1 387 0.559673 0.919812 0 3.75256 
388 1 388 0.559706 0.959826 0 3.66959 
389 1 389 0.559728 0.999845 0 4.06233 
390 1 390 0.6 0 0 0 
391 1 391 0.599956 0.0399735 0 0.737859 
392 1 392 0.599903 0.0799488 0 1.13248 
393 1 393 0.599847 0.119926 0 1.39255 
394 1 394 0.599792 0.159905 0 1.71443 
395 1 395 0.59974 0.199885 0 2.16913 
396 1 396 0.599699 0.239865 0 2.97592 
397 1 397 0.599668 0.279845 0 3.73347 
398 1 398 0.599648 0.319824 0 4.52573 
399 1 399 0.599631 0.359805 0 5.01189 
400 1 400 0.599618 0.399786 0 4.80327 
401 1 401 0.599608 0.439773 0 4.45099 
402 1 402 0.599596 0.479762 0 3.86999 
403 1 403 0.599588 0.519756 0 3.52738 
404 1 404 0.599575 0.559752 0 3.27865 
405 1 405 0.599567 0.599752 0 2.80237 
406 1 406 0.599565 0.639754 0 2.54742 
407 1 407 0.599567 0.679757 0 2.22793 
408 1 408 0.599571 0.719759 0 2.31578 
409 1 409 0.599574 0.759758 0 2.81036 
410 1 410 0.599579 0.799759 0 3.35017 
411 1 411 0.59959 0.83976 0 3.66288 
412 1 412 0.599613 0.879766 0 3.74991 
413 1 413 0.599635 0.919777 0 3.54843 
414 1 414 0.599665 0.959792 0 3.774 
415 1 415 0.599684 0.999813 0 4.33318 
416 1 416 0.64 0 0 0 
417 1 417 0.639952 0.039974 0 0.878159 
418 1 418 0.639898 0.0799501 0 1.39058 
419 1 419 0.639841 0.119928 0 1.67045 
420 1 420 0.639784 0.159907 0 1.90448 
421 1 421 0.639732 0.199885 0 2.24735 
422 1 422 0.63969 0.239863 0 2.83213 
423 1 423 0.639659 0.27984 0 3.30166 
424 1 424 0.639638 0.319817 0 4.00481 
425 1 425 0.639618 0.359796 0 4.50092 
426 1 426 0.639601 0.399777 0 4.34489 
427 1 427 0.639586 0.439763 0 4.1721 
428 1 428 0.639568 0.479752 0 3.69595 
429 1 429 0.639556 0.519746 0 3.51652 
430 1 430 0.639539 0.55974 0 3.43553 
431 1 431 0.639529 0.599738 0 3.08543 
432 1 432 0.639522 0.639736 0 2.91888 
433 1 433 0.639521 0.679735 0 2.46726 
434 1 434 0.639528 0.719735 0 2.42538 
435 1 435 0.639531 0.759733 0 2.75869 
436 1 436 0.639539 0.799733 0 3.08343 
437 1 437 0.639551 0.839732 0 3.354 
438 1 438 0.639571 0.879736 0 3.38835 
439 1 439 0.63959 0.919746 0 3.33479 
440 1 440 0.639615 0.959761 0 3.82927 
441 1 441 0.639632 0.999784 0 4.42522 
442 1 442 0.68 0 0 0 
443 1 443 0.67995 0.0399743 0 0.878887 
444 1 444 0.679894 0.0799508 0 1.44804 
445 1 445 0.679834 0.119929 0 1.80556 
446 1 446 0.679778 0.159906 0 2.07284 
447 1 447 0.679728 0.199882 0 2.3627 
448 1 448 0.679686 0.239857 0 2.78509 
449 1 449 0.679654 0.279832 0 3.06002 
450 1 450 0.679631 0.319808 0 3.56025 
451 1 451 0.679607 0.359786 0 3.97296 
452 1 452 0.679588 0.399767 0 3.95458 
453 1 453 0.679568 0.439753 0 3.97454 
454 1 454 0.679549 0.47974 0 3.6223 
455 1 455 0.679536 0.519732 0 3.56838 
456 1 456 0.679515 0.559725 0 3.60356 
457 1 457 0.679504 0.599721 0 3.37533 
458 1 458 0.679495 0.639719 0 3.2625 
459 1 459 0.679493 0.679716 0 2.79032 
460 1 460 0.679497 0.719716 0 2.65664 
461 1 461 0.679498 0.759714 0 2.71665 
462 1 462 0.679507 0.799712 0 2.8235 
463 1 463 0.679515 0.83971 0 3.08064 
464 1 464 0.67953 0.879713 0 3.10151 
465 1 465 0.679546 0.919723 0 3.23627 
466 1 466 0.679564 0.95974 0 3.83248 
467 1 467 0.679575 0.999764 0 4.30111 
468 1 468 0.72 0 0 0 
469 1 469 0.719945 0.039975 0 0.718669 
470 1 470 0.719888 0.0799509 0 1.34113 
471 1 471 0.719829 0.119929 0 1.83529 
472 1 472 0.719774 0.159904 0 2.17646 
473 1 473 0.719725 0.199878 0 2.44029 
474 1 474 0.719682 0.239851 0 2.74276 
475 1 475 0.71965 0.279823 0 2.92057 
476 1 476 0.719622 0.319798 0 3.24797 
477 1 477 0.719592 0.359776 0 3.57886 
478 1 478 0.719568 0.399757 0 3.69587 
479 1 479 0.719542 0.439743 0 3.85101 
480 1 480 0.719517 0.47973 0 3.62881 
481 1 481 0.7195 0.519722 0 3.61819 
482 1 482 0.719479 0.559715 0 3.69747 
483 1 483 0.719465 0.599708 0 3.64442 
484 1 484 0.719452 0.639702 0 3.62761 
485 1 485 0.719447 0.679697 0 3.24293 
486 1 486 0.719451 0.719697 0 3.05225 
487 1 487 0.719455 0.759695 0 2.885 
488 1 488 0.719465 0.799694 0 2.83935 
489 1 489 0.719473 0.839693 0 2.9948 
490 1 490 0.719483 0.879697 0 2.98873 
491 1 491 0.719494 0.919707 0 3.2948 
492 1 492 0.719505 0.959726 0 3.83173 
493 1 493 0.719513 0.999753 0 4.07889 
494 1 494 0.76 0 0 0 
495 1 495 0.759943 0.0399754 0 0.439953 
496 1 496 0.759884 0.0799509 0 1.10051 
497 1 497 0.759824 0.119928 0 1.73736 
498 1 498 0.75977 0.159901 0 2.1797 
499 1 499 0.759723 0.199873 0 2.49685 
500 1 500 0.75968 0.239843 0 2.69793 
501 1 501 0.759644 0.279814 0 2.79556 
502 1 502 0.759612 0.319788 0 3.02375 
503 1 503 0.759578 0.359766 0 3.35752 
504 1 504 0.759549 0.399746 0 3.63277 
505 1 505 0.759519 0.439731 0 3.8624 
506 1 506 0.759496 0.479717 0 3.77467 
507 1 507 0.759477 0.519706 0 3.76984 
508 1 508 0.759455 0.559697 0 3.82461 
509 1 509 0.75944 0.599689 0 3.92163 
510 1 510 0.759427 0.639684 0 3.9718 
511 1 511 0.759421 0.67968 0 3.70615 
512 1 512 0.759419 0.719681 0 3.43381 
513 1 513 0.75942 0.75968 0 3.04888 
514 1 514 0.759429 0.799681 0 2.85524 
515 1 515 0.759433 0.839683 0 2.87092 
516 1 516 0.759437 0.879689 0 2.91621 
517 1 517 0.759441 0.919701 0 3.33779 
518 1 518 0.759444 0.959723 0 3.69685 
519 1 519 0.759447 0.999751 0 3.71775 
520 1 520 0.8 0 0 0 
521 1 521 0.799937 0.0399748 0 0.0980234 
522 1 522 0.799877 0.0799498 0 0.728866 
523 1 523 0.799819 0.119925 0 1.47755 
524 1 524 0.799766 0.159897 0 2.03916 
525 1 525 0.799718 0.199868 0 2.42638 
526 1 526 0.799676 0.239836 0 2.58118 
527 1 527 0.799635 0.279806 0 2.71159 
528 1 528 0.799596 0.319779 0 2.86689 
529 1 529 0.799558 0.359756 0 3.15341 
530 1 530 0.799523 0.399736 0 3.57439 
531 1 531 0.799488 0.439719 0 3.88527 
532 1 532 0.799459 0.479705 0 3.90306 
533 1 533 0.799435 0.519694 0 3.83578 
534 1 534 0.799416 0.559685 0 3.85133 
535 1 535 0.799399 0.599675 0 4.08132 
536 1 536 0.799383 0.639668 0 4.17415 
537 1 537 0.799373 0.679663 0 4.05715 
538 1 538 0.799369 0.719664 0 3.71333 
539 1 539 0.799373 0.759667 0 3.17497 
540 1 540 0.79938 0.799671 0 2.87211 
541 1 541 0.799383 0.839677 0 2.77328 
542 1 542 0.799383 0.879687 0 2.94526 
543 1 543 0.79938 0.919702 0 3.42608 
544 1 544 0.799376 0.959726 0 3.58039 
545 1 545 0.799375 0.999757 0 3.42526 
546 1 546 0.84 0 0 0 
547 1 547 0.839933 0.0399723 0 -0.278375 
548 1 548 0.83987 0.0799465 0 0.285435 
549 1 549 0.839811 0.11992 0 1.16617 
550 1 550 0.83976 0.159891 0 1.84172 
551 1 551 0.839714 0.19986 0 2.27191 
552 1 552 0.83967 0.239827 0 2.41819 
553 1 553 0.839624 0.279797 0 2.60611 
554 1 554 0.83958 0.319769 0 2.71756 
555 1 555 0.839538 0.359745 0 2.98246 
556 1 556 0.839498 0.399725 0 3.51869 
557 1 557 0.839462 0.439708 0 3.89966 
558 1 558 0.839434 0.479693 0 4.01685 
559 1 559 0.839409 0.519679 0 3.88457 
560 1 560 0.839389 0.559669 0 3.82433 
561 1 561 0.839372 0.59966 0 4.09483 
562 1 562 0.839357 0.639655 0 4.21347 
563 1 563 0.839345 0.679653 0 4.24268 
564 1 564 0.839334 0.719656 0 3.827 
565 1 565 0.839334 0.759661 0 3.19452 
566 1 566 0.839335 0.79967 0 2.79117 
567 1 567 0.839334 0.839679 0 2.58938 
568 1 568 0.839328 0.879692 0 2.84852 
569 1 569 0.839317 0.91971 0 3.28552 
570 1 570 0.839307 0.959735 0 3.32913 
571 1 571 0.839301 0.999768 0 3.12205 
572 1 572 0.88 0 0 0 
573 1 573 0.879925 0.0399681 0 -0.563258 
574 1 574 0.879861 0.0799397 0 -0.0871937 
575 1 575 0.879805 0.119911 0 0.841548 
576 1 576 0.879754 0.159879 0 1.55611 
577 1 577 0.879706 0.199848 0 2.06695 
578 1 578 0.87966 0.239815 0 2.2767 
579 1 579 0.87961 0.279785 0 2.48169 
580 1 580 0.87956 0.319757 0 2.55157 
581 1 581 0.879513 0.359735 0 2.79454 
582 1 582 0.879468 0.399716 0 3.362 
583 1 583 0.879427 0.4397 0 3.76382 
584 1 584 0.879394 0.479687 0 3.96959 
585 1 585 0.879364 0.519675 0 3.85476 
586 1 586 0.879345 0.559666 0 3.77045 
587 1 587 0.879326 0.599657 0 4.03364 
588 1 588 0.879307 0.639652 0 4.1254 
589 1 589 0.87929 0.67965 0 4.19717 
590 1 590 0.879278 0.719653 0 3.71833 
591 1 591 0.879278 0.75966 0 3.0648 
592 1 592 0.879276 0.799672 0 2.56855 
593 1 593 0.879275 0.839685 0 2.35083 
594 1 594 0.879264 0.879702 0 2.70956 
595 1 595 0.879248 0.919722 0 3.05825 
596 1 596 0.879232 0.959749 0 3.11456 
597 1 597 0.879221 0.999784 0 2.9614 
598 1 598 0.92 0 0 0 
599 1 599 0.91992 0.0399631 0 -0.749821 
600 1 600 0.919852 0.0799307 0 -0.428385 
601 1 601 0.919796 0.119898 0 0.460355 
602 1 602 0.919746 0.159864 0 1.20335 
603 1 603 0.919698 0.199831 0 1.80367 
604 1 604 0.919651 0.239799 0 2.09326 
605 1 605 0.919596 0.279771 0 2.33854 
606 1 606 0.919541 0.319745 0 2.41806 
607 1 607 0.91949 0.359724 0 2.63787 
608 1 608 0.919441 0.399707 0 3.19813 
609 1 609 0.919398 0.439692 0 3.6013 
610 1 610 0.919365 0.47968 0 3.8448 
611 1 611 0.919334 0.51967 0 3.77718 
612 1 612 0.919314 0.559662 0 3.68884 
613 1 613 0.919294 0.599657 0 3.92219 
614 1 614 0.919277 0.639655 0 4.01084 
615 1 615 0.919259 0.679656 0 4.10517 
616 1 616 0.919241 0.719661 0 3.62853 
617 1 617 0.919234 0.759669 0 3.03382 
618 1 618 0.919224 0.799684 0 2.48642 
619 1 619 0.919218 0.839699 0 2.29871 
620 1 620 0.9192 0.879719 0 2.64107 
621 1 621 0.91918 0.91974 0 2.81638 
622 1 622 0.919156 0.959768 0 2.92597 
623 1 623 0.919137 0.999804 0 2.84337 
624 1 624 0.96 0 0 0 
625 1 625 0.959913 0.0399585 0 -0.676765 
626 1 626 0.959844 0.0799212 0 -0.53204 
627 1 627 0.959789 0.119884 0 0.215138 
628 1 628 0.959738 0.159849 0 0.978527 
629 1 629 0.959687 0.199815 0 1.6485 
630 1 630 0.959637 0.239783 0 1.96061 
631 1 631 0.959579 0.279757 0 2.19519 
632 1 632 0.959519 0.319733 0 2.29521 
633 1 633 0.95946 0.359714 0 2.46875 
634 1 634 0.959406 0.3997 0 2.96926 
635 1 635 0.959357 0.439688 0 3.41658 
636 1 636 0.959319 0.479679 0 3.74931 
637 1 637 0.959283 0.519672 0 3.80172 
638 1 638 0.959262 0.559668 0 3.73692 
639 1 639 0.959241 0.599665 0 3.92295 
640 1 640 0.95922 0.639663 0 4.01725 
641 1 641 0.959199 0.679665 0 4.07232 
642 1 642 0.959181 0.719671 0 3.56781 
643 1 643 0.959171 0.759681 0 3.02278 
644 1 644 0.959157 0.799698 0 2.47843 
645 1 645 0.959151 0.839715 0 2.3525 
646 1 646 0.959128 0.879738 0 2.56567 
647 1 647 0.959108 0.919762 0 2.56013 
648 1 648 0.959077 0.959792 0 2.71815 
649 1 649 0.959051 0.999828 0 2.64973 
650 1 650 1 0 0 0 
651 1 651 0.999911 0.0399549 0 -0.386139 
652 1 652 0.999839 0.0799141 0 -0.355194 
653 1 653 0.999781 0.119874 0 0.143598 
654 1 654 0.999729 0.159837 0 0.775271 
655 1 655 0.999676 0.199803 0 1.4241 
656 1 656 0.999621 0.239772 0 1.77041 
657 1 657 0.99956 0.279747 0 2.02698 
658 1 658 0.999496 0.319724 0 2.17903 
659 1 659 0.999433 0.359706 0 2.33624 
660 1 660 0.999375 0.399693 0 2.76434 
661 1 661 0.999322 0.439682 0 3.20851 
662 1 662 0.999283 0.479674 0 3.60599 
663 1 663 0.999247 0.519668 0 3.88656 
664 1 664 0.999223 0.559665 0 3.95296 
665 1 665 0.999202 0.599667 0 4.08365 
666 1 666 0.999185 0.639671 0 4.1397 
667 1 667 0.999165 0.679678 0 4.18163 
668 1 668 0.999143 0.719686 0 3.80858 
669 1 669 0.999124 0.759698 0 3.40198 
670 1 670 0.999103 0.799716 0 2.89309 
671 1 671 0.999089 0.839737 0 2.77388 
672 1 672 0.99906 0.879764 0 2.73956 
673 1 673 0.999037 0.919789 0 2.54911 
674 1 674 0.998998 0.959821 0 2.65674 
675 1 675 0.998965 0.999858 0 2.49271 
676 1 676 1.04 0 0 0 
677 1 677 1.03991 0.0399544 0 0.0333242 
678 1 678 1.03983 0.079911 0 -0.0304748 
679 1 679 1.03977 0.119869 0 0.190939 
680 1 680 1.03972 0.159832 0 0.714299 
681 1 681 1.03966 0.199799 0 1.34185 
682 1 682 1.0396 0.239769 0 1.64705 
683 1 683 1.03954 0.279744 0 1.84945 
684 1 684 1.03947 0.319721 0 2.0584 
685 1 685 1.0394 0.359704 0 2.2834 
686 1 686 1.03934 0.399689 0 2.70746 
687 1 687 1.03928 0.439679 0 3.18766 
688 1 688 1.03923 0.479672 0 3.68211 
689 1 689 1.03919 0.519669 0 4.18087 
690 1 690 1.03916 0.559669 0 4.38278 
691 1 691 1.03914 0.599671 0 4.53316 
692 1 692 1.03912 0.639676 0 4.56346 
693 1 693 1.0391 0.679684 0 4.52499 
694 1 694 1.03908 0.719694 0 4.2417 
695 1 695 1.03906 0.75971 0 3.93173 
696 1 696 1.03903 0.799732 0 3.47796 
697 1 697 1.03901 0.839758 0 3.31537 
698 1 698 1.03898 0.879789 0 2.97683 
699 1 699 1.03896 0.91982 0 2.59904 
700 1 700 1.03891 0.959855 0 2.46013 
701 1 701 1.03888 0.999893 0 2.04731 
702 1 702 1.08 0 0 0 
703 1 703 1.07991 0.0399553 0 0.556182 
704 1 704 1.07983 0.0799116 0 0.473697 
705 1 705 1.07976 0.119871 0 0.423221 
706 1 706 1.0797 0.159834 0 0.767209 
707 1 707 1.07964 0.199801 0 1.25949 
708 1 708 1.07958 0.239772 0 1.47801 
709 1 709 1.07951 0.279746 0 1.65978 
710 1 710 1.07944 0.319723 0 1.93344 
711 1 711 1.07937 0.359703 0 2.2336 
712 1 712 1.0793 0.399687 0 2.65899 
713 1 713 1.07924 0.439674 0 3.18209 
714 1 714 1.07919 0.479666 0 3.8239 
715 1 715 1.07915 0.519662 0 4.56902 
716 1 716 1.07912 0.559661 0 4.92744 
717 1 717 1.0791 0.599667 0 5.1158 
718 1 718 1.07908 0.639677 0 5.14334 
719 1 719 1.07906 0.67969 0 5.10976 
720 1 720 1.07903 0.719705 0 4.96438 
721 1 721 1.079 0.759726 0 4.76129 
722 1 722 1.07897 0.799751 0 4.40383 
723 1 723 1.07894 0.839782 0 4.10938 
724 1 724 1.07891 0.879818 0 3.40239 
725 1 725 1.07888 0.919855 0 2.81737 
726 1 726 1.07883 0.959894 0 2.26749 
727 1 727 1.0788 0.999932 0 1.50634 
728 1 728 1.12 0 0 0 
729 1 729 1.11991 0.0399579 0 0.857727 
730 1 730 1.11983 0.079915 0 0.849021 
731 1 731 1.11975 0.119875 0 0.675249 
732 1 732 1.11969 0.15984 0 0.844046 
733 1 733 1.11962 0.199808 0 1.17818 
734 1 734 1.11955 0.239779 0 1.35528 
735 1 735 1.11948 0.279752 0 1.59569 
736 1 736 1.11941 0.319727 0 1.97052 
737 1 737 1.11933 0.359705 0 2.38387 
738 1 738 1.11926 0.399687 0 2.85356 
739 1 739 1.11919 0.439674 0 3.43637 
740 1 740 1.11914 0.479665 0 4.20462 
741 1 741 1.11909 0.519661 0 5.12128 
742 1 742 1.11906 0.559663 0 5.63043 
743 1 743 1.11903 0.599669 0 5.86003 
744 1 744 1.11901 0.639679 0 5.82661 
745 1 745 1.11898 0.679693 0 5.73866 
746 1 746 1.11896 0.719712 0 5.65937 
747 1 747 1.11892 0.759737 0 5.53898 
748 1 748 1.11889 0.799767 0 5.2453 
749 1 749 1.11885 0.839805 0 4.76262 
750 1 750 1.11882 0.879845 0 3.77244 
751 1 751 1.11879 0.919889 0 3.00695 
752 1 752 1.11875 0.959932 0 1.99574 
753 1 753 1.11872 0.999971 0 0.904302 
754 1 754 1.16 0 0 0 
755 1 755 1.15991 0.0399599 0 0.997863 
756 1 756 1.15982 0.079918 0 1.06487 
757 1 757 1.15974 0.119881 0 0.873136 
758 1 758 1.15967 0.159846 0 0.960747 
759 1 759 1.1596 0.199814 0 1.19167 
760 1 760 1.15953 0.239784 0 1.30404 
761 1 761 1.15946 0.279755 0 1.53783 
762 1 762 1.15938 0.319729 0 1.99224 
763 1 763 1.1593 0.359705 0 2.57578 
764 1 764 1.15923 0.399685 0 3.13573 
765 1 765 1.15915 0.43967 0 3.75869 
766 1 766 1.1591 0.479659 0 4.59023 
767 1 767 1.15905 0.519655 0 5.57368 
768 1 768 1.15901 0.559657 0 6.209 
769 1 769 1.15898 0.599667 0 6.4882 
770 1 770 1.15896 0.639683 0 6.38703 
771 1 771 1.15893 0.679703 0 6.28526 
772 1 772 1.1589 0.719727 0 6.30658 
773 1 773 1.15886 0.759756 0 6.26971 
774 1 774 1.15882 0.79979 0 5.98088 
775 1 775 1.15878 0.839831 0 5.30704 
776 1 776 1.15873 0.879875 0 4.09301 
777 1 777 1.1587 0.919923 0 3.10694 
778 1 778 1.15866 0.959968 0 1.7287 
779 1 779 1.15864 1.00001 0 0.453018 
780 1 780 1.2 0 0 0 
781 1 781 1.19991 0.0399618 0 0.939348 
782 1 782 1.19982 0.0799214 0 1.11611 
783 1 783 1.19974 0.119885 0 1.01204 
784 1 784 1.19966 0.159851 0 1.00707 
785 1 785 1.19958 0.199818 0 1.14312 
786 1 786 1.19951 0.239788 0 1.30216 
787 1 787 1.19943 0.279759 0 1.66401 
788 1 788 1.19936 0.319732 0 2.26232 
789 1 789 1.19927 0.359708 0 2.99669 
790 1 790 1.19919 0.399687 0 3.60261 
791 1 791 1.19911 0.439672 0 4.24387 
792 1 792 1.19905 0.479663 0 5.11962 
793 1 793 1.19898 0.519662 0 6.07703 
794 1 794 1.19894 0.559666 0 6.71984 
795 1 795 1.1989 0.599676 0 6.94785 