ITEM: TIMESTEP
0
ITEM: NUMBER OF ATOMS
6875
ITEM: BOX BOUNDS sm sm sm
0 4
0 2
0 0
ITEM: ATOMS id type tag x y z damage s11 s22 s33 s12 s13 s23 vx T ienergy 
1 1 1 0.0199984 0.020001 0 0 0.0117381 0.013089 0.00796334 0.00445145 0 0 -0.0272446 0 0 
2 1 2 0.019998 0.0600009 0 0 0.0118735 0.00360249 0.00497582 0.00410686 0 0 -0.210935 0 0 
3 1 3 0.0199984 0.100001 0 0 -0.00475105 -0.010588 -0.0049007 -0.00213128 0 0 -0.209146 0 0 
4 1 4 0.0199987 0.139999 0 0 -0.0243502 -0.0175117 -0.0134012 -0.00645441 0 0 -0.0987146 0 0 
5 1 5 0.0199964 0.179999 0 0 -0.0427568 -0.0248414 -0.0216457 -0.0101575 0 0 -0.0254391 0 0 
6 1 6 0.0199952 0.219998 0 0 -0.0621713 -0.0281398 -0.0289242 -0.0122473 0 0 0.0231708 0 0 
7 1 7 0.0199934 0.259999 0 0 -0.0810366 -0.0340802 -0.0368756 -0.00891099 0 0 -0.120291 0 0 
8 1 8 0.0199929 0.299999 0 0 -0.0980454 -0.0428177 -0.0451279 -0.00677099 0 0 -0.154684 0 0 
9 1 9 0.0199911 0.34 0 0 -0.11119 -0.0536526 -0.0528163 -0.00391506 0 0 -0.253973 0 0 
10 1 10 0.0199901 0.379999 0 0 -0.12313 -0.0605661 -0.0588608 -0.00746696 0 0 -0.29782 0 0 
11 1 11 0.019987 0.42 0 0 -0.136992 -0.0711539 -0.0667016 -0.00827571 0 0 -0.450019 0 0 
12 1 12 0.019983 0.459999 0 0 -0.152963 -0.0715719 -0.0719605 -0.0148807 0 0 -0.515284 0 0 
13 1 13 0.0199758 0.5 0 0 -0.18283 -0.084713 -0.0857586 -0.012228 0 0 -0.660867 0 0 
14 1 14 0.0199716 0.54 0 0 -0.208608 -0.088605 -0.0952814 -0.0103584 0 0 -0.519129 0 0 
15 1 15 0.0199661 0.580002 0 0 -0.243694 -0.107015 -0.112452 -0.00309884 0 0 0.0255775 0 0 
16 1 16 0.0199577 0.620002 0 0 -0.275193 -0.11413 -0.124849 0.00322192 0 0 0.0580939 0 0 
17 1 17 0.0199442 0.660003 0 0 -0.305498 -0.138543 -0.142419 0.0154974 0 0 -0.825001 0 0 
18 1 18 0.0199375 0.700004 0 0 -0.331428 -0.134646 -0.149496 0.0168517 0 0 -1.39441 0 0 
19 1 19 0.0199381 0.740008 0 0 -0.368558 -0.167083 -0.171843 0.0367309 0 0 -1.65858 0 0 
20 1 20 0.0199473 0.780009 0 0 -0.382912 -0.154873 -0.172531 0.0384369 0 0 -0.936867 0 0 
21 1 21 0.0199509 0.820015 0 0 -0.422794 -0.182251 -0.194144 0.0604265 0 0 -1.01781 0 0 
22 1 22 0.0199562 0.860017 0 0 -0.445678 -0.171255 -0.197965 0.0720927 0 0 -0.854933 0 0 
23 1 23 0.0199558 0.900026 0 0 -0.502395 -0.205186 -0.227107 0.0997495 0 0 -0.814273 0 0 
24 1 24 0.0199582 0.940031 0 0 -0.538279 -0.18618 -0.232545 0.129004 0 0 -0.256163 0 0 
25 1 25 0.0199385 0.980055 0 0 -0.753598 -0.182938 -0.310769 0.143944 0 0 -0.386881 0 0 
26 1 26 0.0600023 0.020001 0 0 0.00312333 0.0112529 0.00461826 0.00121187 0 0 -0.264101 0 0 
27 1 27 0.0600046 0.0600004 0 0 -0.00917205 -0.0115862 -0.00663815 -0.00520098 0 0 -0.7841 0 0 
28 1 28 0.0600008 0.0999994 0 0 -0.0107641 -0.0181384 -0.00924432 -0.0104364 0 0 -0.756616 0 0 
29 1 29 0.0599975 0.139997 0 0 -0.0156548 -0.0195171 -0.0112505 -0.010196 0 0 -0.491181 0 0 
30 1 30 0.0599939 0.179996 0 0 -0.0313581 -0.0212114 -0.0168307 -0.0109653 0 0 -0.187271 0 0 
31 1 31 0.0599904 0.219995 0 0 -0.0519583 -0.020366 -0.0231632 -0.0116965 0 0 -0.0297225 0 0 
32 1 32 0.0599852 0.259997 0 0 -0.072998 -0.0206446 -0.0299971 -0.00565924 0 0 -0.15641 0 0 
33 1 33 0.0599829 0.299998 0 0 -0.0929199 -0.0350181 -0.0409882 -0.00191535 0 0 -0.255242 0 0 
34 1 34 0.0599807 0.339999 0 0 -0.104663 -0.0453872 -0.0480787 0.00511733 0 0 -0.601313 0 0 
35 1 35 0.0599806 0.379999 0 0 -0.116212 -0.0590174 -0.0561504 0.00347511 0 0 -0.538443 0 0 
36 1 36 0.0599792 0.419998 0 0 -0.134203 -0.0724076 -0.0662129 0.00678137 0 0 -0.558218 0 0 
37 1 37 0.0599794 0.459996 0 0 -0.1516 -0.0719893 -0.0716621 -0.000861515 0 0 -0.268161 0 0 
38 1 38 0.0599773 0.499997 0 0 -0.182401 -0.0787738 -0.0837203 -0.000344892 0 0 0.0226712 0 0 
39 1 39 0.0599748 0.539999 0 0 -0.211882 -0.0800911 -0.0936023 0.000848146 0 0 -0.110003 0 0 
40 1 40 0.0599704 0.580003 0 0 -0.243781 -0.0898299 -0.106964 0.00318745 0 0 -0.416543 0 0 
41 1 41 0.0599714 0.620009 0 0 -0.269296 -0.0897547 -0.115131 0.00850799 0 0 -0.585354 0 0 
42 1 42 0.0599761 0.660016 0 0 -0.312229 -0.117921 -0.137957 0.02134 0 0 -0.0805901 0 0 
43 1 43 0.0599762 0.700022 0 0 -0.337448 -0.109849 -0.143466 0.0187378 0 0 1.08323 0 0 
44 1 44 0.0599654 0.74003 0 0 -0.37788 -0.135297 -0.164626 0.0455576 0 0 0.514164 0 0 
45 1 45 0.0599519 0.780039 0 0 -0.400244 -0.123126 -0.1679 0.0463699 0 0 0.682273 0 0 
46 1 46 0.0599366 0.82005 0 0 -0.437134 -0.131958 -0.182588 0.0721513 0 0 0.524631 0 0 
47 1 47 0.0599242 0.860063 0 0 -0.472485 -0.126707 -0.192269 0.0814004 0 0 0.703444 0 0 
48 1 48 0.059909 0.90008 0 0 -0.50778 -0.123119 -0.202448 0.107223 0 0 0.138062 0 0 
49 1 49 0.0598896 0.940106 0 0 -0.598329 -0.0736989 -0.215681 0.11851 0 0 -0.431565 0 0 
50 1 50 0.0598443 0.980147 0 0 -0.595009 0.0128895 -0.186787 0.0267349 0 0 -0.85699 0 0 
51 1 51 0.0999979 0.0199992 0 0 -0.0141455 -0.0158158 -0.00960231 -0.00457403 0 0 -0.599047 0 0 
52 1 52 0.0999967 0.0599978 0 0 -0.0202519 -0.0181976 -0.0123136 -0.00831473 0 0 -1.13356 0 0 
53 1 53 0.0999976 0.0999968 0 0 -0.0169434 -0.0147351 -0.0101348 -0.0125023 0 0 -0.729287 0 0 
54 1 54 0.099995 0.139996 0 0 -0.0214354 -0.0158187 -0.0119213 -0.0138062 0 0 -0.514769 0 0 
55 1 55 0.0999885 0.179995 0 0 -0.0349105 -0.0141722 -0.0157164 -0.0149643 0 0 -0.392149 0 0 
56 1 56 0.0999803 0.219997 0 0 -0.054071 -0.0138974 -0.0217702 -0.0135376 0 0 -0.330521 0 0 
57 1 57 0.0999733 0.259999 0 0 -0.06537 -0.00852622 -0.023672 -0.00493971 0 0 -0.544983 0 0 
58 1 58 0.0999682 0.300003 0 0 -0.0842735 -0.0234333 -0.0345076 0.000459885 0 0 -0.660814 0 0 
59 1 59 0.0999647 0.340005 0 0 -0.0928217 -0.0301621 -0.0394059 0.0107748 0 0 -1.00283 0 0 
60 1 60 0.0999613 0.380007 0 0 -0.106361 -0.0483331 -0.0495698 0.0072489 0 0 -1.03837 0 0 
61 1 61 0.0999551 0.420007 0 0 -0.124823 -0.0603181 -0.0593311 0.00948924 0 0 -1.17313 0 0 
62 1 62 0.0999447 0.460008 0 0 -0.149412 -0.0665301 -0.0692122 0.00188818 0 0 -1.0627 0 0 
63 1 63 0.0999299 0.500009 0 0 -0.175686 -0.0704156 -0.0788875 0.00213391 0 0 -0.946703 0 0 
64 1 64 0.0999158 0.540013 0 0 -0.205128 -0.0669799 -0.0872295 0.0046499 0 0 -0.83183 0 0 
65 1 65 0.0999019 0.580018 0 0 -0.243247 -0.0768521 -0.102627 0.00887362 0 0 -0.31907 0 0 
66 1 66 0.0998839 0.620024 0 0 -0.271435 -0.0734772 -0.110593 0.0154999 0 0 -0.459618 0 0 
67 1 67 0.0998631 0.660032 0 0 -0.299244 -0.0823627 -0.122371 0.0274538 0 0 -1.51841 0 0 
68 1 68 0.0998467 0.700042 0 0 -0.316821 -0.0709583 -0.124355 0.0295238 0 0 -2.0283 0 0 
69 1 69 0.0998394 0.740056 0 0 -0.355247 -0.0829819 -0.140555 0.0526273 0 0 -2.40526 0 0 
70 1 70 0.099838 0.780071 0 0 -0.392115 -0.0737862 -0.149443 0.0549903 0 0 -1.55269 0 0 
71 1 71 0.0998324 0.820091 0 0 -0.432776 -0.079858 -0.164452 0.0753103 0 0 -1.79802 0 0 
72 1 72 0.0998251 0.860113 0 0 -0.459895 -0.0654763 -0.168553 0.0824804 0 0 -1.74645 0 0 
73 1 73 0.0998121 0.900141 0 0 -0.522875 -0.0548131 -0.185354 0.0925758 0 0 -1.40968 0 0 
74 1 74 0.0997869 0.940177 0 0 -0.544625 -0.00358787 -0.175885 0.0536632 0 0 -1.45453 0 0 
75 1 75 0.0997428 0.980216 0 0 -0.551842 -0.0364986 -0.188784 0.0261761 0 0 -1.81247 0 0 
76 1 76 0.14 0.0199978 0 0 -0.0315324 -0.0444834 -0.0243594 -0.00807417 0 0 -0.580239 0 0 
77 1 77 0.14 0.059994 0 0 -0.0363178 -0.0263595 -0.020077 -0.0056634 0 0 -1.16037 0 0 
78 1 78 0.139997 0.099994 0 0 -0.0328178 -0.0148017 -0.0152536 -0.00984595 0 0 -0.949361 0 0 
79 1 79 0.139992 0.139994 0 0 -0.0338374 -0.0125403 -0.0148513 -0.0146008 0 0 -0.8084 0 0 
80 1 80 0.139985 0.179996 0 0 -0.0352075 -0.000948858 -0.0115741 -0.0187903 0 0 -0.598555 0 0 
81 1 81 0.139975 0.219998 0 0 -0.0434958 0.00145038 -0.0134612 -0.0174408 0 0 -0.418547 0 0 
82 1 82 0.139966 0.260003 0 0 -0.0597152 0.00125174 -0.0187245 -0.00897668 0 0 -0.659593 0 0 
83 1 83 0.139959 0.300007 0 0 -0.0809446 -0.0125267 -0.029948 -0.00259807 0 0 -0.825733 0 0 
84 1 84 0.139955 0.340011 0 0 -0.096115 -0.0233797 -0.0382923 0.0102567 0 0 -1.26366 0 0 
85 1 85 0.139952 0.380013 0 0 -0.116593 -0.0427087 -0.0510508 0.00443 0 0 -1.28977 0 0 
86 1 86 0.139947 0.420015 0 0 -0.135439 -0.0528827 -0.0603524 0.00762476 0 0 -1.12585 0 0 
87 1 87 0.13994 0.460016 0 0 -0.155364 -0.0564656 -0.0678927 -0.00176245 0 0 -0.66929 0 0 
88 1 88 0.13993 0.50002 0 0 -0.185412 -0.0632263 -0.0797014 0.00187155 0 0 -0.19232 0 0 
89 1 89 0.139918 0.540024 0 0 -0.211202 -0.056597 -0.0858473 0.0027678 0 0 -0.218015 0 0 
90 1 90 0.139904 0.580034 0 0 -0.234712 -0.054581 -0.0927418 0.0121939 0 0 -0.701669 0 0 
91 1 91 0.139896 0.620045 0 0 -0.260002 -0.0478286 -0.0986929 0.0180107 0 0 -1.02466 0 0 
92 1 92 0.139891 0.66006 0 0 -0.306815 -0.0530712 -0.115401 0.0328116 0 0 -0.578517 0 0 
93 1 93 0.139882 0.700076 0 0 -0.347738 -0.0528441 -0.128469 0.0345166 0 0 0.29715 0 0 
94 1 94 0.139861 0.740095 0 0 -0.382841 -0.0593682 -0.141836 0.0556386 0 0 -0.074026 0 0 
95 1 95 0.139836 0.780117 0 0 -0.406567 -0.0386898 -0.142817 0.0525832 0 0 0.0621851 0 0 
96 1 96 0.139809 0.820142 0 0 -0.450429 -0.0555272 -0.16231 0.0722651 0 0 -0.376445 0 0 
97 1 97 0.139784 0.86017 0 0 -0.488346 -0.0316291 -0.166815 0.068249 0 0 -0.260947 0 0 
98 1 98 0.139753 0.900203 0 0 -0.51572 -0.0304677 -0.17523 0.061971 0 0 -0.974291 0 0 
99 1 99 0.139716 0.940239 0 0 -0.510265 -0.00324813 -0.164748 0.0408717 0 0 -1.58448 0 0 
100 1 100 0.139669 0.980278 0 0 -0.516887 -0.000594003 -0.166022 0.0146937 0 0 -2.18948 0 0 
101 1 101 0.179995 0.019997 0 0 -0.037917 -0.0584264 -0.0308622 -0.0141874 0 0 -0.605477 0 0 
102 1 102 0.17999 0.0599927 0 0 -0.0418328 -0.0299255 -0.0229855 -0.00576888 0 0 -1.23133 0 0 
103 1 103 0.179989 0.0999926 0 0 -0.0451419 -0.0161449 -0.0196364 -0.00751321 0 0 -1.00997 0 0 
104 1 104 0.179986 0.139994 0 0 -0.045429 -0.00914712 -0.0174813 -0.01342 0 0 -0.840561 0 0 
105 1 105 0.179977 0.179997 0 0 -0.0438059 0.00748463 -0.0116272 -0.019015 0 0 -0.543737 0 0 
106 1 106 0.179965 0.220002 0 0 -0.0540343 0.00371668 -0.0161079 -0.0191104 0 0 -0.494298 0 0 
107 1 107 0.179953 0.260007 0 0 -0.0638952 0.00417882 -0.0191222 -0.0153886 0 0 -0.865849 0 0 
108 1 108 0.179944 0.300012 0 0 -0.079784 -0.00513748 -0.0272084 -0.00737893 0 0 -1.19195 0 0 
109 1 109 0.179937 0.340018 0 0 -0.101358 -0.0182234 -0.0383239 0.00173294 0 0 -1.60935 0 0 
110 1 110 0.17993 0.380022 0 0 -0.123847 -0.0309149 -0.0495987 -0.00142841 0 0 -1.75153 0 0 
111 1 111 0.179919 0.420027 0 0 -0.144244 -0.0389153 -0.0586983 0.00086128 0 0 -1.6763 0 0 
112 1 112 0.179903 0.460033 0 0 -0.17032 -0.0468932 -0.0696204 -0.00780612 0 0 -1.32187 0 0 
113 1 113 0.17988 0.500039 0 0 -0.189998 -0.0433113 -0.0747853 -0.0049738 0 0 -1.09297 0 0 
114 1 114 0.179856 0.540048 0 0 -0.220412 -0.0436832 -0.08466 -0.00208486 0 0 -0.696051 0 0 
115 1 115 0.179833 0.580059 0 0 -0.256601 -0.0375523 -0.0943046 0.010331 0 0 -0.357599 0 0 
116 1 116 0.179805 0.620073 0 0 -0.291729 -0.0358441 -0.105032 0.0182093 0 0 -0.516918 0 0 
117 1 117 0.179773 0.66009 0 0 -0.304043 -0.0166934 -0.102836 0.0336212 0 0 -1.8183 0 0 
118 1 118 0.179747 0.700111 0 0 -0.314755 -0.00666677 -0.103061 0.0397306 0 0 -2.7049 0 0 
119 1 119 0.179729 0.740135 0 0 -0.351981 -0.00849305 -0.115594 0.0536992 0 0 -2.98741 0 0 
120 1 120 0.179716 0.780162 0 0 -0.388002 -0.0049013 -0.126007 0.0540646 0 0 -2.43828 0 0 
121 1 121 0.1797 0.820192 0 0 -0.41553 -0.012998 -0.137441 0.0668685 0 0 -2.8209 0 0 
122 1 122 0.179679 0.860224 0 0 -0.43247 0.010837 -0.135225 0.0513553 0 0 -2.64397 0 0 
123 1 123 0.179653 0.900259 0 0 -0.47968 -0.0143852 -0.158486 0.053748 0 0 -2.83926 0 0 
124 1 124 0.179621 0.940295 0 0 -0.499444 0.00777912 -0.157738 0.0274564 0 0 -2.73751 0 0 
125 1 125 0.179576 0.980334 0 0 -0.508839 -0.0110204 -0.166793 0.0115497 0 0 -3.19117 0 0 
126 1 126 0.219997 0.0199966 0 0 -0.0425991 -0.0637667 -0.0340759 -0.020259 0 0 -0.156341 0 0 
127 1 127 0.219991 0.059992 0 0 -0.0500501 -0.0344253 -0.0270574 -0.00900367 0 0 -0.576293 0 0 
128 1 128 0.219986 0.0999916 0 0 -0.0554915 -0.0202216 -0.0242542 -0.00825791 0 0 -0.766925 0 0 
129 1 129 0.219979 0.139994 0 0 -0.053621 -0.000440145 -0.0173149 -0.0133209 0 0 -0.867693 0 0 
130 1 130 0.21997 0.179999 0 0 -0.055187 0.00886771 -0.0148307 -0.0207274 0 0 -0.766012 0 0 
131 1 131 0.219957 0.220004 0 0 -0.0649653 0.00461686 -0.0193208 -0.0222079 0 0 -0.867201 0 0 
132 1 132 0.219944 0.26001 0 0 -0.0828369 -0.00349669 -0.0276493 -0.0203925 0 0 -1.07193 0 0 
133 1 133 0.219932 0.300016 0 0 -0.103639 -0.00873809 -0.0360056 -0.0118944 0 0 -1.42064 0 0 
134 1 134 0.219923 0.340022 0 0 -0.130057 -0.0226199 -0.0489344 -0.00288961 0 0 -1.74067 0 0 
135 1 135 0.219915 0.380029 0 0 -0.156177 -0.0269012 -0.0586831 -0.0048316 0 0 -1.73633 0 0 
136 1 136 0.219905 0.420036 0 0 -0.18365 -0.0356262 -0.070288 -0.0016924 0 0 -1.4771 0 0 
137 1 137 0.219891 0.460045 0 0 -0.211089 -0.0433443 -0.0815671 -0.0104085 0 0 -0.778338 0 0 
138 1 138 0.219873 0.500055 0 0 -0.235975 -0.0410522 -0.088818 -0.00434065 0 0 -0.315048 0 0 
139 1 139 0.219852 0.540067 0 0 -0.256841 -0.0358284 -0.0938339 -0.00570382 0 0 -0.0768443 0 0 
140 1 140 0.219828 0.580083 0 0 -0.267664 -0.0198268 -0.0921719 0.00764505 0 0 -0.893903 0 0 
141 1 141 0.21981 0.620103 0 0 -0.285161 -0.00389264 -0.0926746 0.00835318 0 0 -1.12729 0 0 
142 1 142 0.219794 0.660127 0 0 -0.333541 -0.00363739 -0.108116 0.0218668 0 0 -0.813495 0 0 
143 1 143 0.219775 0.700154 0 0 -0.379594 -0.00630648 -0.123757 0.0265635 0 0 -0.163313 0 0 
144 1 144 0.219745 0.740183 0 0 -0.401182 -0.00361634 -0.129823 0.0358711 0 0 -0.315075 0 0 
145 1 145 0.219709 0.780213 0 0 -0.41504 0.0048165 -0.131564 0.0387196 0 0 -0.793159 0 0 
146 1 146 0.219673 0.820246 0 0 -0.455195 -0.0177182 -0.151693 0.048851 0 0 -1.35602 0 0 
147 1 147 0.219638 0.860279 0 0 -0.472669 0.0014849 -0.151139 0.0366492 0 0 -1.19487 0 0 
148 1 148 0.219598 0.900315 0 0 -0.486292 -0.013134 -0.160207 0.0412979 0 0 -2.23358 0 0 
149 1 149 0.219555 0.94035 0 0 -0.476135 0.0136976 -0.148351 0.0187103 0 0 -2.71941 0 0 
150 1 150 0.219507 0.980389 0 0 -0.488709 -0.00151094 -0.157273 0.0123171 0 0 -3.47499 0 0 
151 1 151 0.259992 0.0199972 0 0 -0.0326321 -0.0550137 -0.0280786 -0.0260313 0 0 -0.0092724 0 0 
152 1 152 0.25998 0.0599925 0 0 -0.0434005 -0.0343781 -0.0249097 -0.014801 0 0 -0.288584 0 0 
153 1 153 0.259975 0.0999924 0 0 -0.062076 -0.020587 -0.026478 -0.010738 0 0 -0.632333 0 0 
154 1 154 0.259968 0.139995 0 0 -0.0708166 -0.00197719 -0.0233148 -0.0161476 0 0 -0.87526 0 0 
155 1 155 0.259957 0.180001 0 0 -0.0797455 0.00211909 -0.0248633 -0.0239013 0 0 -0.862562 0 0 
156 1 156 0.259942 0.220007 0 0 -0.0912186 -0.00304087 -0.0301887 -0.0269984 0 0 -0.993727 0 0 
157 1 157 0.259927 0.260015 0 0 -0.105545 -0.00875111 -0.03661 -0.026086 0 0 -1.13212 0 0 
158 1 158 0.259912 0.300021 0 0 -0.125887 -0.0121854 -0.0442388 -0.0188661 0 0 -1.53571 0 0 
159 1 159 0.259899 0.34003 0 0 -0.16052 -0.0217207 -0.0584074 -0.0121068 0 0 -1.83226 0 0 
160 1 160 0.259884 0.380039 0 0 -0.191446 -0.0256934 -0.0696045 -0.0123502 0 0 -2.06352 0 0 
161 1 161 0.259866 0.420051 0 0 -0.211864 -0.0229575 -0.075277 -0.00749831 0 0 -1.99649 0 0 
162 1 162 0.259842 0.460064 0 0 -0.233446 -0.0275395 -0.0836752 -0.0166645 0 0 -1.50018 0 0 
163 1 163 0.259812 0.500079 0 0 -0.245109 -0.0200085 -0.0850033 -0.00875301 0 0 -1.45543 0 0 
164 1 164 0.259781 0.540095 0 0 -0.266799 -0.0178885 -0.0912776 -0.0133913 0 0 -0.789645 0 0 
165 1 165 0.259748 0.580114 0 0 -0.306993 -0.0147397 -0.103162 -0.000417543 0 0 -0.584665 0 0 
166 1 166 0.25971 0.620136 0 0 -0.341261 -0.0086366 -0.112201 0.00226037 0 0 -0.629139 0 0 
167 1 167 0.259668 0.660161 0 0 -0.338925 0.0194618 -0.102429 0.0157776 0 0 -1.91713 0 0 
168 1 168 0.259632 0.700191 0 0 -0.34103 0.0340496 -0.0984227 0.0226016 0 0 -3.03883 0 0 
169 1 169 0.259606 0.740224 0 0 -0.365994 0.0372545 -0.105406 0.0298947 0 0 -3.20547 0 0 
170 1 170 0.259585 0.780258 0 0 -0.392174 0.0311942 -0.115754 0.0328951 0 0 -2.95355 0 0 
171 1 171 0.259561 0.820293 0 0 -0.410643 0.0199905 -0.125275 0.0382172 0 0 -3.27167 0 0 
172 1 172 0.259533 0.860329 0 0 -0.420728 0.0328656 -0.124385 0.0279976 0 0 -3.4024 0 0 
173 1 173 0.259501 0.900366 0 0 -0.456893 0.00473832 -0.145025 0.0327898 0 0 -3.86363 0 0 
174 1 174 0.259464 0.940403 0 0 -0.47524 0.0179488 -0.146698 0.00969395 0 0 -3.49912 0 0 
175 1 175 0.259419 0.980441 0 0 -0.482898 -0.00449473 -0.156363 0.012213 0 0 -4.29621 0 0 
176 1 176 0.299995 0.0199976 0 0 -0.0284387 -0.044652 -0.0234141 -0.0300573 0 0 0.303426 0 0 
177 1 177 0.299982 0.0599936 0 0 -0.0416445 -0.0348693 -0.0245069 -0.0214227 0 0 0.203806 0 0 
178 1 178 0.299969 0.0999934 0 0 -0.0584001 -0.016349 -0.02394 -0.0181287 0 0 -0.470002 0 0 
179 1 179 0.299957 0.139997 0 0 -0.0784744 -0.00265612 -0.0259851 -0.0201283 0 0 -0.89825 0 0 
180 1 180 0.299944 0.180003 0 0 -0.0963149 -0.00177905 -0.031424 -0.0256163 0 0 -0.963173 0 0 
181 1 181 0.299929 0.22001 0 0 -0.112923 -0.00648939 -0.0382538 -0.0282423 0 0 -1.17467 0 0 
182 1 182 0.29991 0.260018 0 0 -0.137352 -0.0152557 -0.0488944 -0.0290642 0 0 -1.1811 0 0 
183 1 183 0.299892 0.300026 0 0 -0.167176 -0.0224186 -0.0607569 -0.0227828 0 0 -1.69695 0 0 
184 1 184 0.299875 0.340036 0 0 -0.197001 -0.0232298 -0.070585 -0.0181926 0 0 -1.86845 0 0 
185 1 185 0.299857 0.380049 0 0 -0.227916 -0.0192939 -0.0792423 -0.0145876 0 0 -1.89121 0 0 
186 1 186 0.299839 0.420064 0 0 -0.25795 -0.0226678 -0.0899664 -0.0075703 0 0 -1.73706 0 0 
187 1 187 0.299818 0.46008 0 0 -0.280568 -0.0212832 -0.0967871 -0.0170365 0 0 -0.994502 0 0 
188 1 188 0.299794 0.500099 0 0 -0.306675 -0.0261502 -0.106732 -0.0089825 0 0 -0.828515 0 0 
189 1 189 0.299766 0.540118 0 0 -0.322105 -0.0223791 -0.110469 -0.0155751 0 0 -0.474157 0 0 
190 1 190 0.299734 0.580142 0 0 -0.316834 0.000734296 -0.101353 -0.00695656 0 0 -1.19904 0 0 
191 1 191 0.299705 0.620168 0 0 -0.32873 0.0159059 -0.100301 -0.00907019 0 0 -1.23669 0 0 
192 1 192 0.299681 0.660199 0 0 -0.377013 0.0172907 -0.115352 0.000337685 0 0 -0.75629 0 0 
193 1 193 0.299653 0.700233 0 0 -0.429001 0.0126783 -0.133523 0.00305738 0 0 -0.0186359 0 0 
194 1 194 0.299614 0.740268 0 0 -0.446282 0.0140399 -0.138635 0.0129469 0 0 -0.235047 0 0 
195 1 195 0.299573 0.780304 0 0 -0.444076 0.0218926 -0.135405 0.0174784 0 0 -0.880432 0 0 
196 1 196 0.299532 0.820342 0 0 -0.46767 0.00934175 -0.147007 0.0198921 0 0 -1.19664 0 0 
197 1 197 0.29949 0.860378 0 0 -0.478835 0.0112029 -0.150003 0.0156172 0 0 -1.55765 0 0 
198 1 198 0.299447 0.900416 0 0 -0.476466 0.00348717 -0.151715 0.0213532 0 0 -2.87692 0 0 
199 1 199 0.299401 0.940453 0 0 -0.458856 0.0239317 -0.139514 -0.00102792 0 0 -3.37965 0 0 
200 1 200 0.299353 0.980491 0 0 -0.459415 0.00381051 -0.146151 0.00920086 0 0 -4.57518 0 0 
201 1 201 0.33999 0.0199984 0 0 -0.0187808 -0.0312757 -0.0160315 -0.0344734 0 0 0.355219 0 0 
202 1 202 0.339972 0.0599953 0 0 -0.0390242 -0.0316184 -0.0226256 -0.030696 0 0 0.362574 0 0 
203 1 203 0.339958 0.0999957 0 0 -0.0677719 -0.0173573 -0.027268 -0.0284506 0 0 -0.23704 0 0 
204 1 204 0.339943 0.14 0 0 -0.095364 -0.00630187 -0.0325681 -0.0270596 0 0 -0.858234 0 0 
205 1 205 0.339926 0.180007 0 0 -0.120969 -0.0104104 -0.0420961 -0.0296733 0 0 -1.13735 0 0 
206 1 206 0.339906 0.220015 0 0 -0.140263 -0.00928224 -0.0479184 -0.0323848 0 0 -1.34775 0 0 
207 1 207 0.339885 0.260025 0 0 -0.165345 -0.0204563 -0.0595412 -0.0349636 0 0 -1.21953 0 0 
208 1 208 0.339862 0.300035 0 0 -0.193367 -0.0208513 -0.0686536 -0.031184 0 0 -1.55758 0 0 
209 1 209 0.339839 0.340048 0 0 -0.227504 -0.0208096 -0.0795928 -0.0256596 0 0 -1.54777 0 0 
210 1 210 0.339814 0.380064 0 0 -0.250847 -0.00782558 -0.0829156 -0.0230786 0 0 -1.71266 0 0 
211 1 211 0.339788 0.420083 0 0 -0.278022 -0.0103997 -0.0924652 -0.0150304 0 0 -2.02191 0 0 
212 1 212 0.339758 0.460103 0 0 -0.288481 -0.000795189 -0.0927451 -0.0215398 0 0 -1.77879 0 0 
213 1 213 0.339722 0.500127 0 0 -0.289542 0.00595898 -0.0909234 -0.0142075 0 0 -1.98147 0 0 
214 1 214 0.339685 0.54015 0 0 -0.305009 0.00605746 -0.0958516 -0.021363 0 0 -1.40388 0 0 
215 1 215 0.339644 0.580175 0 0 -0.343611 0.00757524 -0.10775 -0.0132356 0 0 -1.14677 0 0 
216 1 216 0.339598 0.620202 0 0 -0.378832 0.00857106 -0.118738 -0.013705 0 0 -0.89422 0 0 
217 1 217 0.339547 0.660233 0 0 -0.369211 0.0336726 -0.10759 0.00014956 0 0 -1.94141 0 0 
218 1 218 0.339503 0.700268 0 0 -0.353243 0.0607488 -0.0937773 0.00289482 0 0 -2.66203 0 0 
219 1 219 0.33947 0.740305 0 0 -0.37805 0.0561646 -0.103208 0.0130425 0 0 -2.81925 0 0 
220 1 220 0.339444 0.780343 0 0 -0.407692 0.0493427 -0.114911 0.0163245 0 0 -2.72331 0 0 
221 1 221 0.339416 0.820383 0 0 -0.41494 0.0449234 -0.118653 0.0140222 0 0 -2.95474 0 0 
222 1 222 0.339384 0.860422 0 0 -0.417585 0.0433022 -0.120032 0.00882224 0 0 -3.50507 0 0 
223 1 223 0.33935 0.900461 0 0 -0.446651 0.0260884 -0.134887 0.00853007 0 0 -3.98808 0 0 
224 1 224 0.339312 0.940499 0 0 -0.464676 0.0194253 -0.14283 -0.00738879 0 0 -3.87907 0 0 
225 1 225 0.339269 0.980536 0 0 -0.455959 0.00134037 -0.145832 0.00880129 0 0 -5.08884 0 0 
226 1 226 0.379993 0.0199989 0 0 -0.0161695 -0.0217699 -0.012146 -0.0374162 0 0 0.391383 0 0 
227 1 227 0.379974 0.0599969 0 0 -0.0359823 -0.0233346 -0.0189937 -0.0391923 0 0 0.266575 0 0 
228 1 228 0.379951 0.0999982 0 0 -0.0649595 -0.0125192 -0.0248156 -0.0404554 0 0 -0.40559 0 0 
229 1 229 0.379928 0.140003 0 0 -0.102112 -0.00592401 -0.0346106 -0.0371307 0 0 -0.874308 0 0 
230 1 230 0.379908 0.180011 0 0 -0.13583 -0.0111448 -0.0470979 -0.0352134 0 0 -1.02033 0 0 
231 1 231 0.379885 0.22002 0 0 -0.157553 -0.0074495 -0.052879 -0.0367675 0 0 -1.26455 0 0 
232 1 232 0.379861 0.260031 0 0 -0.187339 -0.0188137 -0.0660737 -0.0385822 0 0 -1.10356 0 0 
233 1 233 0.379833 0.300043 0 0 -0.209053 -0.0120309 -0.0708608 -0.0355639 0 0 -1.27403 0 0 
234 1 234 0.379806 0.340059 0 0 -0.233628 -0.00397314 -0.0761609 -0.0302834 0 0 -1.36592 0 0 
235 1 235 0.379778 0.380077 0 0 -0.26099 0.002717 -0.0827895 -0.0256585 0 0 -1.60392 0 0 
236 1 236 0.379752 0.420099 0 0 -0.283452 0.0111774 -0.0872831 -0.0173511 0 0 -1.68498 0 0 
237 1 237 0.379725 0.460122 0 0 -0.30558 0.0119015 -0.0941518 -0.0195211 0 0 -1.32114 0 0 
238 1 238 0.379696 0.500148 0 0 -0.330866 0.00945998 -0.103053 -0.0140698 0 0 -1.25302 0 0 
239 1 239 0.379663 0.540175 0 0 -0.350717 0.0068963 -0.110246 -0.0228099 0 0 -0.894057 0 0 
240 1 240 0.379624 0.580205 0 0 -0.340406 0.0261084 -0.100771 -0.017264 0 0 -1.54803 0 0 
241 1 241 0.379587 0.620237 0 0 -0.346695 0.03844 -0.0988383 -0.0244821 0 0 -1.1787 0 0 
242 1 242 0.379554 0.660272 0 0 -0.405276 0.0250722 -0.121929 -0.014361 0 0 -0.535506 0 0 
243 1 243 0.379519 0.700309 0 0 -0.457437 0.0196617 -0.140415 -0.0128733 0 0 0.495345 0 0 
244 1 244 0.379475 0.740347 0 0 -0.470313 0.0145551 -0.146187 -0.0019663 0 0 0.332986 0 0 
245 1 245 0.379429 0.780385 0 0 -0.461282 0.0288952 -0.138682 0.000384906 0 0 -0.365915 0 0 
246 1 246 0.379385 0.820425 0 0 -0.478182 0.0175684 -0.147746 0.000248812 0 0 -0.811786 0 0 
247 1 247 0.379342 0.860463 0 0 -0.486965 0.0106314 -0.152806 -0.00356872 0 0 -1.57739 0 0 
248 1 248 0.379296 0.900502 0 0 -0.468278 0.0208809 -0.14351 -0.00446792 0 0 -2.86834 0 0 
249 1 249 0.37925 0.94054 0 0 -0.442587 0.0256098 -0.133755 -0.0164308 0 0 -3.67451 0 0 
250 1 250 0.379207 0.980577 0 0 -0.431068 0.0101034 -0.135025 0.00162521 0 0 -4.90103 0 0 
251 1 251 0.419988 0.0199995 0 0 -0.0143666 -0.0139821 -0.00907202 -0.0428808 0 0 0.201519 0 0 
252 1 252 0.419963 0.0599991 0 0 -0.0446696 -0.0181048 -0.0201005 -0.0522726 0 0 0.0471706 0 0 
253 1 253 0.419938 0.100001 0 0 -0.0824364 -0.0165191 -0.0316994 -0.0541845 0 0 -0.229742 0 0 
254 1 254 0.419911 0.140007 0 0 -0.10997 -0.00397888 -0.0365077 -0.0481843 0 0 -0.724993 0 0 
255 1 255 0.419884 0.180016 0 0 -0.142356 -0.00693123 -0.0478413 -0.0432899 0 0 -1.09656 0 0 
256 1 256 0.419857 0.220027 0 0 -0.168149 -0.00022507 -0.0539622 -0.0440836 0 0 -1.26678 0 0 
257 1 257 0.419829 0.26004 0 0 -0.192293 -0.00490336 -0.063204 -0.0435369 0 0 -0.947584 0 0 
258 1 258 0.419798 0.300056 0 0 -0.211624 0.00423847 -0.0664711 -0.0424765 0 0 -0.938721 0 0 
259 1 259 0.419765 0.340074 0 0 -0.241882 0.00801194 -0.0749668 -0.0405708 0 0 -0.904462 0 0 
260 1 260 0.41973 0.380096 0 0 -0.265403 0.0177263 -0.079393 -0.0344708 0 0 -1.08577 0 0 
261 1 261 0.419696 0.420121 0 0 -0.282822 0.0296902 -0.0811434 -0.0263778 0 0 -1.35593 0 0 
262 1 262 0.41966 0.460148 0 0 -0.294368 0.0374537 -0.0823561 -0.0274439 0 0 -1.54725 0 0 
263 1 263 0.419619 0.500178 0 0 -0.296124 0.0462656 -0.0800942 -0.0230864 0 0 -2.05872 0 0 
264 1 264 0.419576 0.540208 0 0 -0.311353 0.0491089 -0.0840663 -0.0325731 0 0 -1.68629 0 0 
265 1 265 0.419529 0.58024 0 0 -0.357929 0.0362182 -0.103148 -0.0243759 0 0 -1.4256 0 0 
266 1 266 0.419476 0.620273 0 0 -0.392057 0.0320027 -0.115462 -0.0284882 0 0 -0.751035 0 0 
267 1 267 0.419417 0.660308 0 0 -0.378752 0.0443616 -0.107223 -0.0132965 0 0 -1.65209 0 0 
268 1 268 0.419366 0.700343 0 0 -0.351864 0.0708887 -0.0900809 -0.00932367 0 0 -2.30503 0 0 
269 1 269 0.419328 0.740382 0 0 -0.375306 0.0575417 -0.101883 0.000109617 0 0 -2.42208 0 0 
270 1 270 0.419299 0.78042 0 0 -0.403184 0.0528463 -0.112342 0.000615898 0 0 -2.33021 0 0 
271 1 271 0.419269 0.82046 0 0 -0.401727 0.0503005 -0.112691 -0.000585904 0 0 -2.85861 0 0 
272 1 272 0.419236 0.860498 0 0 -0.402613 0.0477397 -0.113808 -0.0104105 0 0 -3.50616 0 0 
273 1 273 0.4192 0.900537 0 0 -0.433742 0.0375549 -0.12707 -0.0141161 0 0 -3.95492 0 0 
274 1 274 0.419163 0.940575 0 0 -0.454521 0.0111574 -0.142229 -0.0176453 0 0 -4.24624 0 0 
275 1 275 0.419127 0.980611 0 0 -0.436717 0.00549494 -0.138319 -0.000547195 0 0 -5.16963 0 0 
276 1 276 0.45999 0.0199997 0 0 -0.0247042 -0.0158134 -0.0129734 -0.0518393 0 0 0.039285 0 0 
277 1 277 0.459963 0.0599999 0 0 -0.0532833 -0.0134026 -0.0213544 -0.0648324 0 0 -0.223757 0 0 
278 1 278 0.459928 0.100004 0 0 -0.0802176 -0.00770515 -0.0281639 -0.067301 0 0 -0.296503 0 0 
279 1 279 0.459893 0.14001 0 0 -0.115622 -0.000331818 -0.0371524 -0.0621565 0 0 -0.589742 0 0 
280 1 280 0.459862 0.18002 0 0 -0.153244 -0.0019075 -0.0497223 -0.0539719 0 0 -0.80598 0 0 
281 1 281 0.459832 0.220033 0 0 -0.17305 0.0112752 -0.0518451 -0.0513874 0 0 -0.989022 0 0 
282 1 282 0.459799 0.260049 0 0 -0.196278 0.0124865 -0.0589048 -0.0490626 0 0 -0.663613 0 0 
283 1 283 0.459765 0.300067 0 0 -0.215251 0.0215759 -0.0620732 -0.0482184 0 0 -0.532513 0 0 
284 1 284 0.459728 0.340088 0 0 -0.230066 0.029151 -0.0643951 -0.043985 0 0 -0.490374 0 0 
285 1 285 0.459692 0.380112 0 0 -0.241735 0.0452217 -0.062981 -0.0366254 0 0 -0.614416 0 0 
286 1 286 0.459657 0.420139 0 0 -0.264281 0.0529004 -0.0677486 -0.0305315 0 0 -0.970933 0 0 
287 1 287 0.459624 0.460168 0 0 -0.292076 0.0539162 -0.0763419 -0.0290214 0 0 -1.12968 0 0 
288 1 288 0.45959 0.5002 0 0 -0.328529 0.0510052 -0.0889741 -0.0285293 0 0 -1.09308 0 0 
289 1 289 0.45955 0.540234 0 0 -0.359501 0.0457956 -0.10058 -0.0388363 0 0 -0.854743 0 0 
290 1 290 0.459504 0.58027 0 0 -0.352696 0.0558323 -0.0951738 -0.0341481 0 0 -1.54596 0 0 
291 1 291 0.459461 0.620307 0 0 -0.356642 0.0596987 -0.0952039 -0.0456658 0 0 -0.987613 0 0 
292 1 292 0.459422 0.660345 0 0 -0.418733 0.0308833 -0.124382 -0.0359774 0 0 -0.22176 0 0 
293 1 293 0.459381 0.700383 0 0 -0.476261 0.0101237 -0.149522 -0.0315193 0 0 0.810698 0 0 
294 1 294 0.459333 0.740421 0 0 -0.484652 0.00110286 -0.155111 -0.0203683 0 0 0.513874 0 0 
295 1 295 0.459284 0.780457 0 0 -0.468945 0.0160472 -0.145271 -0.0190535 0 0 -0.298493 0 0 
296 1 296 0.459238 0.820496 0 0 -0.486032 0.00371969 -0.154717 -0.0138194 0 0 -1.17552 0 0 
297 1 297 0.459194 0.860532 0 0 -0.494018 0.00180546 -0.157906 -0.02403 0 0 -1.82246 0 0 
298 1 298 0.459147 0.900571 0 0 -0.463665 0.018636 -0.142752 -0.0228183 0 0 -3.02325 0 0 
299 1 299 0.459104 0.940607 0 0 -0.434857 0.0125217 -0.135474 -0.0213145 0 0 -3.90953 0 0 
300 1 300 0.459068 0.980641 0 0 -0.423817 0.0108182 -0.132466 -0.00620587 0 0 -4.31486 0 0 
301 1 301 0.499983 0.0199997 0 0 -0.0255591 -0.0175815 -0.013815 -0.0645724 0 0 -0.243008 0 0 
302 1 302 0.499948 0.0600006 0 0 -0.0584898 -0.00847596 -0.0214455 -0.0780728 0 0 -0.579045 0 0 
303 1 303 0.499912 0.100006 0 0 -0.0930547 -0.005489 -0.0315701 -0.0810693 0 0 -0.235303 0 0 
304 1 304 0.499874 0.140013 0 0 -0.118005 0.0030922 -0.036819 -0.0769105 0 0 -0.445259 0 0 
305 1 305 0.499836 0.180025 0 0 -0.144768 0.015224 -0.0415119 -0.0691269 0 0 -0.60236 0 0 
306 1 306 0.4998 0.22004 0 0 -0.176109 0.0253249 -0.0483211 -0.0639989 0 0 -0.699286 0 0 
307 1 307 0.499764 0.260059 0 0 -0.196024 0.0320164 -0.0525585 -0.0588464 0 0 -0.373555 0 0 
308 1 308 0.499726 0.300081 0 0 -0.206958 0.0468414 -0.0513082 -0.0594102 0 0 -0.134978 0 0 
309 1 309 0.499685 0.340105 0 0 -0.230214 0.0467835 -0.0587841 -0.0548377 0 0 -0.149027 0 0 
310 1 310 0.499644 0.380132 0 0 -0.248472 0.0548261 -0.0620581 -0.0491985 0 0 -0.26811 0 0 
311 1 311 0.499602 0.420161 0 0 -0.270241 0.0616842 -0.0668414 -0.0472482 0 0 -0.606663 0 0 
312 1 312 0.499557 0.460193 0 0 -0.290942 0.0679249 -0.0714854 -0.0442195 0 0 -1.12511 0 0 
313 1 313 0.49951 0.500228 0 0 -0.296976 0.0798379 -0.069603 -0.0456657 0 0 -1.62421 0 0 
314 1 314 0.499459 0.540264 0 0 -0.314285 0.0846517 -0.0736066 -0.0566785 0 0 -1.392 0 0 
315 1 315 0.499406 0.580302 0 0 -0.376569 0.0573419 -0.10235 -0.0491964 0 0 -1.2102 0 0 
316 1 316 0.499346 0.620338 0 0 -0.416717 0.0429115 -0.119871 -0.0530337 0 0 -0.526044 0 0 
317 1 317 0.499281 0.660376 0 0 -0.392203 0.0475466 -0.110515 -0.0362013 0 0 -1.41325 0 0 
318 1 318 0.499226 0.700412 0 0 -0.355272 0.0649658 -0.0930744 -0.0297164 0 0 -2.14086 0 0 
319 1 319 0.499185 0.740449 0 0 -0.376796 0.0482125 -0.105356 -0.0187601 0 0 -2.46541 0 0 
320 1 320 0.499153 0.780486 0 0 -0.406233 0.0401999 -0.117382 -0.0176957 0 0 -2.53847 0 0 
321 1 321 0.499122 0.820524 0 0 -0.402093 0.0397096 -0.116206 -0.0117808 0 0 -3.49577 0 0 
322 1 322 0.499088 0.860561 0 0 -0.399163 0.0430116 -0.114213 -0.0260047 0 0 -3.97638 0 0 
323 1 323 0.499052 0.900599 0 0 -0.42776 0.0302033 -0.127505 -0.0223247 0 0 -4.44408 0 0 
324 1 324 0.499019 0.940635 0 0 -0.450168 -0.00166739 -0.144942 -0.0160547 0 0 -4.563 0 0 