ITEM: TIMESTEP
0
ITEM: NUMBER OF ATOMS
7127
ITEM: BOX BOUNDS sm sm sm
0 4
0 2
0 0
ITEM: ATOMS id type tag x y z vx 
0 1 0 0 0 0 0 
1 1 1 0 0.04 0 0 
2 1 2 0 0.08 0 0 
3 1 3 0 0.12 0 0 
4 1 4 0 0.16 0 0 
5 1 5 0 0.2 0 0 
6 1 6 0 0.24 0 0 
7 1 7 0 0.28 0 0 
8 1 8 0 0.32 0 0 
9 1 9 0 0.36 0 0 
10 1 10 0 0.4 0 0 
11 1 11 0 0.44 0 0 
12 1 12 0 0.48 0 0 
13 1 13 0 0.52 0 0 
14 1 14 0 0.56 0 0 
15 1 15 0 0.6 0 0 
16 1 16 0 0.64 0 0 
17 1 17 0 0.68 0 0 
18 1 18 0 0.72 0 0 
19 1 19 0 0.76 0 0 
20 1 20 0 0.8 0 0 
21 1 21 0 0.84 0 0 
22 1 22 0 0.88 0 0 
23 1 23 0 0.92 0 0 
24 1 24 0 0.96 0 0 
25 1 25 0 1 0 0 
26 1 26 0.04 0 0 0 
27 1 27 0.0399945 0.0399974 0 -0.586081 
28 1 28 0.0399933 0.0799974 0 -1.0039 
29 1 29 0.0399935 0.119996 0 -1.44857 
30 1 30 0.0399955 0.159989 0 -1.50636 
31 1 31 0.0399972 0.199982 0 -1.28457 
32 1 32 0.0400003 0.239971 0 -1.04477 
33 1 33 0.0399993 0.279962 0 -0.839227 
34 1 34 0.0400013 0.319952 0 -0.658241 
35 1 35 0.0399977 0.359948 0 -0.506852 
36 1 36 0.0399988 0.399948 0 -0.336336 
37 1 37 0.0399955 0.439952 0 -0.0720599 
38 1 38 0.039999 0.479962 0 0.206614 
39 1 39 0.0399994 0.519968 0 0.512595 
40 1 40 0.040001 0.559977 0 0.512381 
41 1 41 0.040002 0.599981 0 0.613893 
42 1 42 0.0399994 0.639988 0 0.625587 
43 1 43 0.0400003 0.679993 0 0.469715 
44 1 44 0.0400004 0.719996 0 0.678146 
45 1 45 0.039994 0.760003 0 0.501447 
46 1 46 0.040004 0.800003 0 0.87849 
47 1 47 0.0399893 0.840014 0 1.03703 
48 1 48 0.0399975 0.880015 0 0.258876 
49 1 49 0.0400028 0.920018 0 0.570344 
50 1 50 0.0399911 0.960021 0 -0.163719 
51 1 51 0.0400008 1.00002 0 -1.41406 
52 1 52 0.08 0 0 0 
53 1 53 0.0799878 0.0399909 0 -0.978703 
54 1 54 0.0799898 0.0799856 0 -2.08125 
55 1 55 0.0799918 0.119978 0 -3.07905 
56 1 56 0.0799976 0.159967 0 -3.07482 
57 1 57 0.0800014 0.199956 0 -2.56915 
58 1 58 0.0800072 0.239941 0 -2.0347 
59 1 59 0.0800047 0.27993 0 -1.51534 
60 1 60 0.0800064 0.319917 0 -1.1451 
61 1 61 0.079995 0.359913 0 -0.829246 
62 1 62 0.0799925 0.399917 0 -0.581124 
63 1 63 0.079984 0.439924 0 -0.158715 
64 1 64 0.079991 0.47994 0 0.311024 
65 1 65 0.079993 0.519949 0 0.913016 
66 1 66 0.0799978 0.559961 0 0.98265 
67 1 67 0.0799988 0.599968 0 0.974764 
68 1 68 0.0799956 0.639976 0 0.912256 
69 1 69 0.0799955 0.679984 0 0.738895 
70 1 70 0.0799967 0.71999 0 1.18027 
71 1 71 0.0799893 0.759997 0 1.27609 
72 1 72 0.0799955 0.800001 0 1.83356 
73 1 73 0.0799827 0.84001 0 2.08607 
74 1 74 0.07999 0.880017 0 1.24761 
75 1 75 0.0799977 0.920024 0 1.09734 
76 1 76 0.0799905 0.960028 0 -0.410038 
77 1 77 0.0800122 1.00002 0 -2.0765 
78 1 78 0.12 0 0 0 
79 1 79 0.11999 0.0399883 0 -1.10315 
80 1 80 0.119992 0.0799745 0 -2.77541 
81 1 81 0.119995 0.119959 0 -4.22024 
82 1 82 0.120003 0.159946 0 -4.29845 
83 1 83 0.120008 0.199932 0 -3.66642 
84 1 84 0.120014 0.239918 0 -2.93402 
85 1 85 0.120011 0.279908 0 -2.21408 
86 1 86 0.120008 0.319898 0 -1.71365 
87 1 87 0.119992 0.359896 0 -1.17232 
88 1 88 0.119981 0.399903 0 -0.775587 
89 1 89 0.119971 0.43991 0 -0.183876 
90 1 90 0.119976 0.479928 0 0.474246 
91 1 91 0.119984 0.519937 0 1.17028 
92 1 92 0.119991 0.559951 0 1.33291 
93 1 93 0.119996 0.599958 0 1.14315 
94 1 94 0.119994 0.639967 0 0.963586 
95 1 95 0.119996 0.679973 0 0.881279 
96 1 96 0.119996 0.719981 0 1.35366 
97 1 97 0.119991 0.759984 0 1.85819 
98 1 98 0.119988 0.799992 0 2.60743 
99 1 99 0.119977 0.839997 0 2.78254 
100 1 100 0.119983 0.880003 0 2.08635 
101 1 101 0.119985 0.920015 0 1.26708 
102 1 102 0.119992 0.960017 0 -0.33332 
103 1 103 0.120014 1.00002 0 -1.41917 
104 1 104 0.16 0 0 0 
105 1 105 0.159996 0.0399862 0 -1.11632 
106 1 106 0.159999 0.0799682 0 -3.01408 
107 1 107 0.160003 0.119952 0 -4.73755 
108 1 108 0.160011 0.159938 0 -5.0854 
109 1 109 0.160017 0.199925 0 -4.48157 
110 1 110 0.16002 0.239912 0 -3.61336 
111 1 111 0.160016 0.279904 0 -2.78867 
112 1 112 0.160007 0.319897 0 -2.20389 
113 1 113 0.159987 0.359896 0 -1.54216 
114 1 114 0.159968 0.399901 0 -0.980503 
115 1 115 0.159958 0.439909 0 -0.299127 
116 1 116 0.159961 0.47992 0 0.530099 
117 1 117 0.159972 0.519933 0 1.09972 
118 1 118 0.159985 0.559944 0 1.24192 
119 1 119 0.159987 0.599953 0 1.05801 
120 1 120 0.15999 0.639962 0 0.798994 
121 1 121 0.15999 0.679965 0 0.884951 
122 1 122 0.159992 0.719971 0 1.3195 
123 1 123 0.159988 0.759971 0 2.17806 
124 1 124 0.15998 0.799976 0 3.07097 
125 1 125 0.159971 0.83998 0 3.15707 
126 1 126 0.159972 0.879982 0 2.56453 
127 1 127 0.159974 0.919988 0 1.25697 
128 1 128 0.159989 0.959991 0 0.247925 
129 1 129 0.160011 0.999995 0 0.146071 
130 1 130 0.2 0 0 0 
131 1 131 0.200004 0.0399847 0 -0.925187 
132 1 132 0.200008 0.0799672 0 -2.83649 
133 1 133 0.20001 0.119953 0 -4.67072 
134 1 134 0.200016 0.15994 0 -5.29202 
135 1 135 0.200024 0.19993 0 -4.95639 
136 1 136 0.200026 0.239919 0 -4.19239 
137 1 137 0.200021 0.279912 0 -3.4358 
138 1 138 0.200007 0.319907 0 -2.81919 
139 1 139 0.199983 0.359907 0 -2.09068 
140 1 140 0.199961 0.399907 0 -1.28537 
141 1 141 0.199946 0.439913 0 -0.484722 
142 1 142 0.19995 0.479919 0 0.414784 
143 1 143 0.199957 0.519928 0 0.896918 
144 1 144 0.199976 0.55994 0 0.943215 
145 1 145 0.199982 0.599947 0 0.807027 
146 1 146 0.19999 0.639955 0 0.523016 
147 1 147 0.199992 0.679957 0 0.747845 
148 1 148 0.199992 0.719962 0 1.16528 
149 1 149 0.199992 0.75996 0 2.22066 
150 1 150 0.199977 0.799962 0 3.02903 
151 1 151 0.199973 0.839957 0 3.0086 
152 1 152 0.199967 0.879957 0 2.62577 
153 1 153 0.199964 0.919958 0 1.2555 
154 1 154 0.19998 0.959959 0 1.0223 
155 1 155 0.199994 0.999969 0 1.69238 
156 1 156 0.24 0 0 0 
157 1 157 0.240011 0.0399866 0 -0.576623 
158 1 158 0.240013 0.0799709 0 -2.30626 
159 1 159 0.240014 0.119958 0 -4.069 
160 1 160 0.240021 0.159949 0 -4.99219 
161 1 161 0.240029 0.19994 0 -5.1522 
162 1 162 0.240031 0.239934 0 -4.687 
163 1 163 0.240023 0.279926 0 -4.09298 
164 1 164 0.240008 0.319925 0 -3.48914 
165 1 165 0.239981 0.359921 0 -2.67901 
166 1 166 0.239959 0.399921 0 -1.66641 
167 1 167 0.239941 0.43992 0 -0.740048 
168 1 168 0.239941 0.479922 0 0.0652167 
169 1 169 0.239946 0.519927 0 0.399137 
170 1 170 0.239962 0.559936 0 0.398895 
171 1 171 0.23997 0.599943 0 0.280646 
172 1 172 0.239979 0.639948 0 0.10391 
173 1 173 0.239984 0.679949 0 0.560446 
174 1 174 0.239985 0.719951 0 1.01613 
175 1 175 0.239988 0.75995 0 2.08549 
176 1 176 0.239975 0.799948 0 2.7231 
177 1 177 0.239974 0.839939 0 2.65531 
178 1 178 0.239962 0.879934 0 2.39211 
179 1 179 0.239956 0.919932 0 1.21663 
180 1 180 0.239965 0.959936 0 1.69325 
181 1 181 0.239963 0.999949 0 2.79325 
182 1 182 0.28 0 0 0 
183 1 183 0.280017 0.0399885 0 -0.341573 
184 1 184 0.280019 0.0799764 0 -1.67496 
185 1 185 0.280017 0.119966 0 -3.18439 
186 1 186 0.280024 0.15996 0 -4.41218 
187 1 187 0.280033 0.199952 0 -5.14369 
188 1 188 0.280035 0.239951 0 -5.11541 
189 1 189 0.280026 0.279943 0 -4.7542 
190 1 190 0.280009 0.319943 0 -4.18539 
191 1 191 0.279983 0.359937 0 -3.3055 
192 1 192 0.279961 0.39993 0 -2.14244 
193 1 193 0.279941 0.439927 0 -1.07908 
194 1 194 0.279934 0.479919 0 -0.3352 
195 1 195 0.279934 0.519925 0 -0.202409 
196 1 196 0.279949 0.559928 0 -0.283735 
197 1 197 0.27996 0.599936 0 -0.250028 
198 1 198 0.279975 0.639941 0 -0.130993 
199 1 199 0.279982 0.679943 0 0.525465 
200 1 200 0.279983 0.719945 0 1.03237 
201 1 201 0.279987 0.759943 0 1.96898 
202 1 202 0.279978 0.799942 0 2.2721 
203 1 203 0.279979 0.839932 0 2.17788 
204 1 204 0.279959 0.879928 0 2.00874 
205 1 205 0.279946 0.919923 0 1.15753 
206 1 206 0.279942 0.959929 0 2.04178 
207 1 207 0.279926 0.999943 0 3.15775 
208 1 208 0.32 0 0 0 
209 1 209 0.320017 0.039991 0 -0.222671 
210 1 210 0.32002 0.0799827 0 -1.10173 
211 1 211 0.320019 0.119976 0 -2.29094 
212 1 212 0.320025 0.159971 0 -3.74445 
213 1 213 0.320034 0.199965 0 -5.02929 
214 1 214 0.320037 0.239964 0 -5.54916 
215 1 215 0.320029 0.279958 0 -5.48028 
216 1 216 0.320012 0.319954 0 -4.94062 
217 1 217 0.319988 0.359948 0 -3.97383 
218 1 218 0.319967 0.399935 0 -2.61889 
219 1 219 0.319944 0.439926 0 -1.40216 
220 1 220 0.319932 0.479916 0 -0.794692 
221 1 221 0.319925 0.519915 0 -0.80249 
222 1 222 0.31993 0.559919 0 -0.869188 
223 1 223 0.319941 0.599925 0 -0.711121 
224 1 224 0.319955 0.639934 0 -0.191398 
225 1 225 0.319963 0.679939 0 0.686913 
226 1 226 0.319969 0.719947 0 1.2028 
227 1 227 0.319977 0.759947 0 1.96733 
228 1 228 0.319974 0.799948 0 1.87705 
229 1 229 0.319979 0.839943 0 1.65768 
230 1 230 0.319954 0.87994 0 1.55015 
231 1 231 0.319936 0.919938 0 1.10318 
232 1 232 0.319916 0.959946 0 1.96221 
233 1 233 0.319887 0.999959 0 2.66619 
234 1 234 0.36 0 0 0 
235 1 235 0.360018 0.0399938 0 -0.28339 
236 1 236 0.360021 0.0799895 0 -0.824591 
237 1 237 0.36002 0.119984 0 -1.66058 
238 1 238 0.360026 0.159979 0 -3.16076 
239 1 239 0.360034 0.199973 0 -4.87002 
240 1 240 0.360038 0.239971 0 -5.90234 
241 1 241 0.360031 0.279964 0 -6.07355 
242 1 242 0.360016 0.319957 0 -5.56713 
243 1 243 0.359996 0.359946 0 -4.51703 
244 1 244 0.359975 0.399932 0 -3.00894 
245 1 245 0.35995 0.439918 0 -1.75793 
246 1 246 0.359931 0.479907 0 -1.32057 
247 1 247 0.359917 0.519903 0 -1.46261 
248 1 248 0.359917 0.559904 0 -1.39106 
249 1 249 0.359925 0.599915 0 -1.09305 
250 1 250 0.359943 0.639925 0 -0.336368 
251 1 251 0.359951 0.679938 0 0.856874 
252 1 252 0.359957 0.719951 0 1.4575 
253 1 253 0.359967 0.759961 0 1.93221 
254 1 254 0.359968 0.799966 0 1.50846 
255 1 255 0.359972 0.839968 0 1.12387 
256 1 256 0.359946 0.87997 0 0.947621 
257 1 257 0.359923 0.919969 0 0.855828 
258 1 258 0.35989 0.95998 0 1.50235 
259 1 259 0.359853 0.99999 0 1.67531 
260 1 260 0.4 0 0 0 
261 1 261 0.400014 0.0399965 0 -0.589422 
262 1 262 0.400019 0.0799954 0 -0.853089 
263 1 263 0.400021 0.119988 0 -1.28891 
264 1 264 0.400027 0.159983 0 -2.7676 
265 1 265 0.400034 0.199974 0 -4.75337 
266 1 266 0.400038 0.239971 0 -6.14656 
267 1 267 0.400033 0.279962 0 -6.52748 
268 1 268 0.40002 0.319952 0 -6.04841 
269 1 269 0.400004 0.359938 0 -4.93562 
270 1 270 0.399984 0.399923 0 -3.37715 
271 1 271 0.399957 0.439908 0 -2.21673 
272 1 272 0.399933 0.479894 0 -1.85801 
273 1 273 0.399908 0.519893 0 -2.05515 
274 1 274 0.3999 0.559894 0 -1.99362 
275 1 275 0.3999 0.599907 0 -1.4222 
276 1 276 0.399909 0.639924 0 -0.42467 
277 1 277 0.399919 0.679943 0 0.791888 
278 1 278 0.399928 0.719962 0 1.46146 
279 1 279 0.399941 0.759977 0 1.64945 
280 1 280 0.39995 0.799992 0 0.899164 
281 1 281 0.399956 0.840001 0 0.42816 
282 1 282 0.399932 0.880009 0 0.280297 
283 1 283 0.399907 0.920013 0 0.511071 
284 1 284 0.399864 0.960023 0 0.814874 
285 1 285 0.399824 1.00003 0 0.45165 
286 1 286 0.44 0 0 0 
287 1 287 0.440013 0.0399986 0 -1.01366 
288 1 288 0.44002 0.0799984 0 -1.09591 
289 1 289 0.440025 0.119989 0 -1.2167 
290 1 290 0.44003 0.159981 0 -2.61837 
291 1 291 0.440032 0.19997 0 -4.64538 
292 1 292 0.440037 0.239962 0 -6.24897 
293 1 293 0.440034 0.279953 0 -6.85177 
294 1 294 0.440023 0.31994 0 -6.37656 
295 1 295 0.44001 0.359926 0 -5.24344 
296 1 296 0.439991 0.399911 0 -3.78856 
297 1 297 0.439964 0.439898 0 -2.7397 
298 1 298 0.439934 0.479887 0 -2.48306 
299 1 299 0.439904 0.519884 0 -2.68259 
300 1 300 0.439886 0.559889 0 -2.60381 
301 1 301 0.439883 0.599903 0 -1.96313 
302 1 302 0.43989 0.639925 0 -0.754549 
303 1 303 0.439895 0.67995 0 0.428059 
304 1 304 0.439907 0.719975 0 1.04012 
305 1 305 0.439918 0.759997 0 1.08898 
306 1 306 0.439928 0.800016 0 0.146261 
307 1 307 0.439933 0.840034 0 -0.397587 
308 1 308 0.439912 0.880049 0 -0.45525 
309 1 309 0.439887 0.920058 0 0.0531498 
310 1 310 0.43984 0.960071 0 0.0678017 
311 1 311 0.439801 1.00008 0 -0.685013 
312 1 312 0.48 0 0 0 
313 1 313 0.48001 0.0399999 0 -1.42309 
314 1 314 0.48002 0.0799986 0 -1.51113 
315 1 315 0.480029 0.119988 0 -1.47923 
316 1 316 0.480033 0.159977 0 -2.707 
317 1 317 0.480031 0.199964 0 -4.58514 
318 1 318 0.480035 0.239954 0 -6.2784 
319 1 319 0.480033 0.279944 0 -7.00692 
320 1 320 0.480025 0.319932 0 -6.57853 
321 1 321 0.480016 0.359918 0 -5.54919 
322 1 322 0.479996 0.399906 0 -4.33199 
323 1 323 0.479969 0.439894 0 -3.47711 
324 1 324 0.479935 0.479887 0 -3.21668 
325 1 325 0.479899 0.519885 0 -3.25614 
326 1 326 0.479871 0.559891 0 -2.95282 
327 1 327 0.479854 0.599907 0 -2.35484 
328 1 328 0.479853 0.63993 0 -1.31094 
329 1 329 0.479856 0.67996 0 -0.183782 
330 1 330 0.479868 0.719987 0 0.353941 
331 1 331 0.479882 0.760015 0 0.222364 
332 1 332 0.479893 0.80004 0 -0.705913 
333 1 333 0.479899 0.840064 0 -1.16599 
334 1 334 0.479883 0.880087 0 -1.14048 
335 1 335 0.479863 0.920103 0 -0.513608 
336 1 336 0.47982 0.960116 0 -0.683761 
337 1 337 0.479785 1.00012 0 -1.60105 
338 1 338 0.52 0 0 0 
339 1 339 0.520011 0.0399996 0 -1.68253 
340 1 340 0.520024 0.079996 0 -1.9204 
341 1 341 0.520036 0.119984 0 -1.94208 
342 1 342 0.520038 0.159972 0 -3.0072 
343 1 343 0.520032 0.199959 0 -4.64766 
344 1 344 0.520032 0.239949 0 -6.31504 
345 1 345 0.520032 0.279938 0 -7.16654 
346 1 346 0.520027 0.319928 0 -6.90409 
347 1 347 0.520018 0.359916 0 -6.0418 
348 1 348 0.519999 0.399906 0 -5.03605 
349 1 349 0.519972 0.439898 0 -4.33506 
350 1 350 0.519936 0.479893 0 -3.90957 
351 1 351 0.519896 0.519891 0 -3.61954 
352 1 352 0.519863 0.559899 0 -3.12805 
353 1 353 0.51984 0.599914 0 -2.52028 
354 1 354 0.519832 0.639938 0 -1.64076 
355 1 355 0.519834 0.679968 0 -0.777357 
356 1 356 0.519845 0.719997 0 -0.421591 
357 1 357 0.519855 0.760028 0 -0.688645 
358 1 358 0.519864 0.800057 0 -1.50927 
359 1 359 0.519865 0.84009 0 -1.82831 
360 1 360 0.519852 0.880119 0 -1.76887 
361 1 361 0.519836 0.920142 0 -1.18748 
362 1 362 0.519799 0.960158 0 -1.44032 
363 1 363 0.51977 1.00016 0 -2.32072 
364 1 364 0.56 0 0 0 
365 1 365 0.560011 0.0399986 0 -1.74158 
366 1 366 0.560027 0.0799936 0 -2.19119 
367 1 367 0.560042 0.119983 0 -2.44786 
368 1 368 0.560044 0.159972 0 -3.46393 
369 1 369 0.560034 0.199959 0 -4.85644 
370 1 370 0.56003 0.239949 0 -6.39608 
371 1 371 0.560031 0.279941 0 -7.34965 
372 1 372 0.560027 0.319932 0 -7.25888 
373 1 373 0.56002 0.359924 0 -6.58442 
374 1 374 0.560001 0.399916 0 -5.84335 
375 1 375 0.559975 0.43991 0 -5.20146 
376 1 376 0.559935 0.479909 0 -4.47662 
377 1 377 0.559893 0.519906 0 -3.7861 
378 1 378 0.559851 0.559914 0 -3.07336 
379 1 379 0.559816 0.599927 0 -2.49406 
380 1 380 0.5598 0.639949 0 -1.8403 
381 1 381 0.559797 0.679978 0 -1.36387 
382 1 382 0.559809 0.720005 0 -1.3011 
383 1 383 0.55982 0.760039 0 -1.56098 
384 1 384 0.559825 0.800072 0 -2.12112 
385 1 385 0.559825 0.840109 0 -2.31123 
386 1 386 0.559818 0.880145 0 -2.26617 
387 1 387 0.559809 0.920172 0 -1.85084 
388 1 388 0.559781 0.960191 0 -2.14696 
389 1 389 0.559757 1.0002 0 -2.87077 
390 1 390 0.6 0 0 0 
391 1 391 0.600013 0.0399962 0 -1.5398 
392 1 392 0.600033 0.0799904 0 -2.32799 
393 1 393 0.600049 0.119983 0 -3.03066 
394 1 394 0.600048 0.159973 0 -4.01419 
395 1 395 0.600038 0.199964 0 -5.04258 
396 1 396 0.600033 0.239956 0 -6.34707 
397 1 397 0.600033 0.279949 0 -7.34471 
398 1 398 0.600029 0.319943 0 -7.46959 
399 1 399 0.600022 0.359938 0 -7.09317 
400 1 400 0.600002 0.399935 0 -6.62908 
401 1 401 0.599977 0.43993 0 -6.03662 
402 1 402 0.599937 0.479931 0 -4.98176 
403 1 403 0.599893 0.519929 0 -3.86556 
404 1 404 0.599849 0.559935 0 -2.92494 
405 1 405 0.599811 0.599945 0 -2.37731 
406 1 406 0.599792 0.639963 0 -2.09931 
407 1 407 0.599788 0.679988 0 -2.04178 
408 1 408 0.599795 0.720014 0 -2.1876 
409 1 409 0.5998 0.760048 0 -2.42265 
410 1 410 0.599798 0.800083 0 -2.68475 
411 1 411 0.599792 0.840124 0 -2.71962 
412 1 412 0.599786 0.880163 0 -2.6935 
413 1 413 0.599781 0.920195 0 -2.46447 
414 1 414 0.599759 0.960218 0 -2.7467 
415 1 415 0.599739 1.00023 0 -3.24617 
416 1 416 0.64 0 0 0 
417 1 417 0.640012 0.0399941 0 -1.19146 
418 1 418 0.640034 0.0799885 0 -2.29307 
419 1 419 0.640053 0.119984 0 -3.39441 
420 1 420 0.640054 0.159978 0 -4.28642 
421 1 421 0.640045 0.199973 0 -5.01847 
422 1 422 0.640037 0.239966 0 -6.14528 
423 1 423 0.640035 0.279962 0 -7.13567 
424 1 424 0.640032 0.31996 0 -7.4767 
425 1 425 0.640024 0.359959 0 -7.46264 
426 1 426 0.640004 0.39996 0 -7.20856 
427 1 427 0.639978 0.439959 0 -6.64727 
428 1 428 0.639939 0.479962 0 -5.38584 
429 1 429 0.639894 0.519961 0 -3.89836 
430 1 430 0.639844 0.559966 0 -2.82788 
431 1 431 0.639798 0.599972 0 -2.4395 
432 1 432 0.63977 0.639985 0 -2.55384 
433 1 433 0.639763 0.680004 0 -2.86875 
434 1 434 0.639769 0.720027 0 -3.21024 
435 1 435 0.639773 0.760059 0 -3.3858 
436 1 436 0.639766 0.800094 0 -3.20813 
437 1 437 0.639757 0.840135 0 -2.95806 
438 1 438 0.639755 0.880175 0 -2.90825 
439 1 439 0.639752 0.920209 0 -2.89746 
440 1 440 0.639737 0.960236 0 -3.21548 
441 1 441 0.63972 1.00025 0 -3.50718 
442 1 442 0.68 0 0 0 
443 1 443 0.680015 0.039993 0 -0.766216 
444 1 444 0.680037 0.0799867 0 -2.0659 
445 1 445 0.680054 0.119985 0 -3.48796 
446 1 446 0.680056 0.159982 0 -4.34746 
447 1 447 0.680052 0.19998 0 -4.80967 
448 1 448 0.680044 0.239976 0 -5.61916 
449 1 449 0.680041 0.279974 0 -6.51047 
450 1 450 0.680036 0.319977 0 -7.10323 
451 1 451 0.680026 0.359979 0 -7.50926 
452 1 452 0.680005 0.399986 0 -7.49427 
453 1 453 0.679979 0.439989 0 -7.025 
454 1 454 0.679941 0.479995 0 -5.7448 
455 1 455 0.679897 0.519996 0 -4.13925 
456 1 456 0.67985 0.56 0 -3.09389 
457 1 457 0.679806 0.600003 0 -2.80486 
458 1 458 0.679778 0.64001 0 -3.16005 
459 1 459 0.679769 0.680023 0 -3.76443 
460 1 460 0.679765 0.720044 0 -4.25328 
461 1 461 0.67976 0.760073 0 -4.2646 
462 1 462 0.679746 0.800107 0 -3.57346 
463 1 463 0.67973 0.840147 0 -3.0512 
464 1 464 0.679728 0.880184 0 -2.92493 
465 1 465 0.679724 0.920219 0 -3.02808 
466 1 466 0.679713 0.960247 0 -3.31938 
467 1 467 0.679698 1.00026 0 -3.38321 
468 1 468 0.72 0 0 0 
469 1 469 0.720013 0.0399931 0 -0.420194 
470 1 470 0.720035 0.0799863 0 -1.76451 
471 1 471 0.720053 0.119987 0 -3.29092 
472 1 472 0.720059 0.159986 0 -4.09898 
473 1 473 0.72006 0.199986 0 -4.3512 
474 1 474 0.72005 0.239984 0 -4.87003 
475 1 475 0.720045 0.279984 0 -5.68601 
476 1 476 0.720037 0.31999 0 -6.48856 
477 1 477 0.720025 0.359997 0 -7.27949 
478 1 478 0.720004 0.400008 0 -7.53339 
479 1 479 0.719976 0.440016 0 -7.18626 
480 1 480 0.71994 0.480025 0 -5.92089 
481 1 481 0.719897 0.520031 0 -4.30675 
482 1 482 0.719849 0.560035 0 -3.39533 
483 1 483 0.719802 0.600037 0 -3.15465 
484 1 484 0.719766 0.640041 0 -3.71033 
485 1 485 0.719753 0.68005 0 -4.58407 
486 1 486 0.719744 0.720067 0 -5.04711 
487 1 487 0.719736 0.760092 0 -4.80138 
488 1 488 0.71972 0.800124 0 -3.67782 
489 1 489 0.719702 0.840159 0 -2.89566 
490 1 490 0.719699 0.880193 0 -2.67124 
491 1 491 0.719695 0.920227 0 -2.92973 
492 1 492 0.719688 0.960252 0 -3.2414 
493 1 493 0.719676 1.00027 0 -3.10109 
494 1 494 0.76 0 0 0 
495 1 495 0.760017 0.0399928 0 -0.141764 
496 1 496 0.760036 0.0799849 0 -1.40715 
497 1 497 0.76005 0.119985 0 -2.89592 
498 1 498 0.760057 0.159985 0 -3.63594 
499 1 499 0.760065 0.199986 0 -3.77871 
500 1 500 0.760056 0.239986 0 -4.1204 
501 1 501 0.760048 0.279989 0 -4.88542 
502 1 502 0.760035 0.319997 0 -5.83694 
503 1 503 0.760021 0.360006 0 -6.89917 
504 1 504 0.759999 0.400022 0 -7.28653 
505 1 505 0.759972 0.440033 0 -6.97379 
506 1 506 0.759938 0.480046 0 -5.82575 
507 1 507 0.759898 0.520056 0 -4.36776 
508 1 508 0.759854 0.560062 0 -3.60301 
509 1 509 0.759815 0.600064 0 -3.3815 
510 1 510 0.759782 0.640069 0 -4.07217 
511 1 511 0.759764 0.680075 0 -5.04049 
512 1 512 0.759742 0.720091 0 -5.36779 
513 1 513 0.759724 0.760115 0 -4.98895 
514 1 514 0.759703 0.800143 0 -3.59805 
515 1 515 0.759679 0.840172 0 -2.53972 
516 1 516 0.759673 0.880201 0 -2.18268 
517 1 517 0.759666 0.920231 0 -2.54647 
518 1 518 0.759663 0.960252 0 -2.82131 
519 1 519 0.759655 1.00027 0 -2.48849 
520 1 520 0.8 0 0 0 
521 1 521 0.800017 0.0399934 0 0.143766 
522 1 522 0.800034 0.0799857 0 -0.964444 
523 1 523 0.800047 0.119986 0 -2.36095 
524 1 524 0.800057 0.159985 0 -3.13113 
525 1 525 0.800067 0.199988 0 -3.34858 
526 1 526 0.800058 0.239988 0 -3.54082 
527 1 527 0.800047 0.279992 0 -4.17009 
528 1 528 0.80003 0.320002 0 -5.21 
529 1 529 0.800013 0.360013 0 -6.41026 
530 1 530 0.79999 0.40003 0 -6.77396 
531 1 531 0.799962 0.440045 0 -6.4328 
532 1 532 0.79993 0.480061 0 -5.51422 
533 1 533 0.799893 0.520074 0 -4.34392 
534 1 534 0.79985 0.560083 0 -3.72668 
535 1 535 0.79981 0.600087 0 -3.51612 
536 1 536 0.799769 0.640094 0 -4.19551 
537 1 537 0.799743 0.680099 0 -5.08209 
538 1 538 0.799716 0.720116 0 -5.32104 
539 1 539 0.799694 0.760137 0 -4.93522 
540 1 540 0.799672 0.800161 0 -3.39188 
541 1 541 0.799651 0.840186 0 -2.14988 
542 1 542 0.799644 0.880208 0 -1.69188 
543 1 543 0.799636 0.920233 0 -2.06345 
544 1 544 0.799639 0.960249 0 -2.23576 
545 1 545 0.799634 1.00026 0 -1.74169 
546 1 546 0.84 0 0 0 
547 1 547 0.840022 0.0399932 0 0.224414 
548 1 548 0.840035 0.0799867 0 -0.697417 
549 1 549 0.840044 0.119985 0 -1.8256 
550 1 550 0.840054 0.159984 0 -2.55616 
551 1 551 0.840067 0.199988 0 -2.98475 
552 1 552 0.840058 0.239989 0 -3.19932 
553 1 553 0.840045 0.279994 0 -3.72904 
554 1 554 0.840024 0.320004 0 -4.68635 
555 1 555 0.840003 0.360016 0 -5.77424 
556 1 556 0.83998 0.400032 0 -6.03687 
557 1 557 0.839953 0.440049 0 -5.64025 
558 1 558 0.839922 0.480066 0 -4.89159 
559 1 559 0.839888 0.520081 0 -3.99057 
560 1 560 0.839851 0.560093 0 -3.57768 
561 1 561 0.839819 0.6001 0 -3.49208 
562 1 562 0.83978 0.640108 0 -4.11667 
563 1 563 0.839746 0.680116 0 -4.91669 
564 1 564 0.839705 0.720135 0 -5.17479 
565 1 565 0.839674 0.760155 0 -4.7924 
566 1 566 0.839649 0.800177 0 -3.23905 
567 1 567 0.839626 0.840197 0 -2.01619 
568 1 568 0.839617 0.880213 0 -1.41431 
569 1 569 0.839606 0.920232 0 -1.59019 
570 1 570 0.839615 0.960245 0 -1.55439 
571 1 571 0.839615 1.00026 0 -0.903903 
572 1 572 0.88 0 0 0 
573 1 573 0.880021 0.0399942 0 0.261763 
574 1 574 0.880032 0.0799896 0 -0.410242 
575 1 575 0.880041 0.119987 0 -1.29297 
576 1 576 0.880051 0.159986 0 -2.01657 
577 1 577 0.880063 0.199989 0 -2.61053 
578 1 578 0.880054 0.239993 0 -2.86189 
579 1 579 0.880039 0.279999 0 -3.33162 
580 1 580 0.880015 0.320008 0 -4.13883 
581 1 581 0.879992 0.360021 0 -4.94297 
582 1 582 0.879967 0.400037 0 -5.00296 
583 1 583 0.879939 0.440054 0 -4.5483 
584 1 584 0.879909 0.480071 0 -4.07969 
585 1 585 0.879878 0.520086 0 -3.63288 
586 1 586 0.879839 0.5601 0 -3.50118 
587 1 587 0.879802 0.600109 0 -3.54748 
588 1 588 0.879754 0.64012 0 -4.08267 
589 1 589 0.879711 0.680131 0 -4.79533 
590 1 590 0.879665 0.720151 0 -5.1043 
591 1 591 0.879632 0.760169 0 -4.81017 
592 1 592 0.87961 0.80019 0 -3.48735 
593 1 593 0.879594 0.840205 0 -2.36456 
594 1 594 0.879587 0.880215 0 -1.41676 
595 1 595 0.879577 0.92023 0 -1.16919 
596 1 596 0.879592 0.960239 0 -0.798341 
597 1 597 0.879596 1.00025 0 0.0438177 
598 1 598 0.92 0 0 0 
599 1 599 0.920022 0.0399946 0 0.0882151 
600 1 600 0.920032 0.0799903 0 -0.23977 
601 1 601 0.920039 0.119988 0 -0.706983 
602 1 602 0.920046 0.159986 0 -1.36927 
603 1 603 0.920056 0.199989 0 -2.16278 
604 1 604 0.920047 0.239995 0 -2.50807 
605 1 605 0.92003 0.280004 0 -2.88124 
606 1 606 0.920004 0.320013 0 -3.41377 
607 1 607 0.919979 0.360027 0 -3.83024 
608 1 608 0.919953 0.400041 0 -3.73705 
609 1 609 0.919925 0.440058 0 -3.32976 
610 1 610 0.919896 0.480074 0 -3.17805 
611 1 611 0.919867 0.520088 0 -3.21314 
612 1 612 0.919832 0.560101 0 -3.38516 
613 1 613 0.9198 0.600111 0 -3.6251 
614 1 614 0.919754 0.640124 0 -4.12753 
615 1 615 0.919702 0.680139 0 -4.73632 
616 1 616 0.919647 0.720159 0 -5.05479 
617 1 617 0.919607 0.760177 0 -4.93736 
618 1 618 0.919583 0.800197 0 -4.02277 
619 1 619 0.919567 0.840209 0 -3.06652 
620 1 620 0.91956 0.880217 0 -1.78668 
621 1 621 0.91955 0.920227 0 -1.06361 
622 1 622 0.91957 0.960233 0 -0.248198 
623 1 623 0.919579 1.00024 0 0.828687 
624 1 624 0.96 0 0 0 
625 1 625 0.960018 0.0399952 0 -0.250687 
626 1 626 0.960027 0.079992 0 -0.304023 
627 1 627 0.960035 0.119988 0 -0.304747 
628 1 628 0.960039 0.159986 0 -0.710869 
629 1 629 0.960043 0.199989 0 -1.51334 
630 1 630 0.960032 0.239998 0 -1.91148 
631 1 631 0.960014 0.280009 0 -2.19194 
632 1 632 0.959987 0.320019 0 -2.45462 
633 1 633 0.95996 0.360034 0 -2.49595 
634 1 634 0.959933 0.400048 0 -2.29068 
635 1 635 0.959906 0.440064 0 -2.00135 
636 1 636 0.959876 0.480079 0 -2.18421 
637 1 637 0.959849 0.520092 0 -2.68062 
638 1 638 0.959811 0.560104 0 -3.15822 
639 1 639 0.959771 0.600116 0 -3.63015 
640 1 640 0.959716 0.64013 0 -4.13311 
641 1 641 0.959658 0.680146 0 -4.66541 
642 1 642 0.959602 0.720165 0 -5.06832 
643 1 643 0.959564 0.760182 0 -5.22419 
644 1 644 0.959544 0.800199 0 -4.67453 
645 1 645 0.959537 0.840209 0 -3.84721 
646 1 646 0.959534 0.880216 0 -2.36542 
647 1 647 0.959525 0.920223 0 -1.13878 
648 1 648 0.959548 0.960228 0 0.216434 
649 1 649 0.959561 1.00024 0 1.51461 
650 1 650 1 0 0 0 
651 1 651 1.00002 0.0399943 0 -0.552493 
652 1 652 1.00002 0.0799905 0 -0.359034 
653 1 653 1.00003 0.119984 0 0.0217018 
654 1 654 1.00003 0.159983 0 -0.109983 
655 1 655 1.00002 0.199987 0 -0.790138 
656 1 656 1.00001 0.239997 0 -1.22763 
657 1 657 0.999991 0.28001 0 -1.45263 
658 1 658 0.999963 0.320022 0 -1.43073 
659 1 659 0.999936 0.360039 0 -1.10412 
660 1 660 0.999906 0.400052 0 -0.833293 
661 1 661 0.999881 0.440069 0 -0.741314 
662 1 662 0.999854 0.480082 0 -1.26435 
663 1 663 0.99983 0.520094 0 -2.16724 
664 1 664 0.999796 0.560105 0 -2.93259 
665 1 665 0.999761 0.600117 0 -3.60905 
666 1 666 0.99971 0.640131 0 -4.0876 
667 1 667 0.999648 0.680148 0 -4.52986 
668 1 668 0.999588 0.720166 0 -4.96626 
669 1 669 0.999545 0.760182 0 -5.36043 
670 1 670 0.999524 0.800196 0 -5.16456 
671 1 671 0.999515 0.840206 0 -4.54706 
672 1 672 0.999514 0.880213 0 -3.00396 
673 1 673 0.999505 0.920218 0 -1.29951 
674 1 674 0.999527 0.960223 0 0.414297 
675 1 675 0.999541 1.00023 0 1.73127 
676 1 676 1.04 0 0 0 
677 1 677 1.04001 0.0399932 0 -0.880691 
678 1 678 1.04001 0.0799889 0 -0.528003 
679 1 679 1.04002 0.119982 0 0.157347 
680 1 680 1.04001 0.159982 0 0.273124 
681 1 681 1.04 0.199986 0 -0.209502 
682 1 682 1.03998 0.239997 0 -0.603912 
683 1 683 1.03996 0.280013 0 -0.761082 
684 1 684 1.03993 0.320027 0 -0.502646 
685 1 685 1.0399 0.360044 0 0.0923338 
686 1 686 1.03987 0.400059 0 0.339519 
687 1 687 1.03985 0.440075 0 0.176709 
688 1 688 1.03982 0.480088 0 -0.628386 
689 1 689 1.0398 0.5201 0 -1.80494 
690 1 690 1.03977 0.560111 0 -2.75102 
691 1 691 1.03973 0.600124 0 -3.51753 
692 1 692 1.03967 0.640138 0 -3.93753 
693 1 693 1.0396 0.680153 0 -4.29161 
694 1 694 1.03955 0.720167 0 -4.63918 
695 1 695 1.03951 0.76018 0 -5.14428 
696 1 696 1.0395 0.800191 0 -5.26381 
697 1 697 1.03949 0.840199 0 -4.88494 
698 1 698 1.0395 0.880207 0 -3.4026 
699 1 699 1.03949 0.920211 0 -1.39125 
700 1 700 1.03951 0.960218 0 0.412824 
701 1 701 1.03952 1.00023 0 1.56679 
702 1 702 1.08 0 0 0 
703 1 703 1.08001 0.0399907 0 -1.04294 
704 1 704 1.08001 0.0799856 0 -0.777497 
705 1 705 1.08001 0.11998 0 -0.089204 
706 1 706 1.07999 0.15998 0 0.218116 
707 1 707 1.07997 0.199985 0 0.0253794 
708 1 708 1.07994 0.239997 0 -0.275907 
709 1 709 1.07992 0.280013 0 -0.391382 
710 1 710 1.07989 0.320029 0 0.0236322 
711 1 711 1.07987 0.360048 0 0.753927 
712 1 712 1.07984 0.400063 0 0.907175 
713 1 713 1.07982 0.440079 0 0.512597 
714 1 714 1.0798 0.480091 0 -0.443452 
715 1 715 1.07978 0.520104 0 -1.68618 
716 1 716 1.07975 0.560114 0 -2.63774 
717 1 717 1.07971 0.600127 0 -3.35346 
718 1 718 1.07966 0.640139 0 -3.6217 
719 1 719 1.0796 0.680154 0 -3.80184 
720 1 720 1.07955 0.720164 0 -3.98415 
721 1 721 1.0795 0.760174 0 -4.5794 
722 1 722 1.07949 0.800183 0 -4.93382 
723 1 723 1.07948 0.840191 0 -4.69009 
724 1 724 1.07948 0.880201 0 -3.41036 
725 1 725 1.07948 0.920204 0 -1.38488 
726 1 726 1.07948 0.960213 0 0.271396 
727 1 727 1.07949 1.00022 0 1.15118 
728 1 728 1.12 0 0 0 
729 1 729 1.12 0.0399893 0 -0.95472 
730 1 730 1.11999 0.0799839 0 -0.895461 
731 1 731 1.11999 0.119979 0 -0.472172 
732 1 732 1.11997 0.159982 0 -0.187704 
733 1 733 1.11993 0.199988 0 -0.192698 
734 1 734 1.11991 0.240001 0 -0.390494 
735 1 735 1.11988 0.280018 0 -0.445731 
736 1 736 1.11985 0.320035 0 0.052908 
737 1 737 1.11983 0.360054 0 0.790394 
738 1 738 1.1198 0.40007 0 0.835422 
739 1 739 1.11978 0.440086 0 0.265089 
740 1 740 1.11976 0.480098 0 -0.778535 
741 1 741 1.11975 0.520112 0 -1.97023 
742 1 742 1.11971 0.560123 0 -2.78275 
743 1 743 1.11967 0.600137 0 -3.29585 
744 1 744 1.11962 0.640148 0 -3.2958 
745 1 745 1.11956 0.680158 0 -3.1947 
746 1 746 1.11952 0.720163 0 -3.05012 
747 1 747 1.11948 0.76017 0 -3.5338 
748 1 748 1.11947 0.800174 0 -4.04439 
749 1 749 1.11946 0.840182 0 -4.06056 
750 1 750 1.11947 0.880193 0 -3.25135 
751 1 751 1.11946 0.920198 0 -1.47458 
752 1 752 1.11946 0.960209 0 -0.152677 
753 1 753 1.11946 1.00022 0 0.359825 
754 1 754 1.16 0 0 0 
755 1 755 1.15999 0.039986 0 -0.739097 
756 1 756 1.15998 0.0799801 0 -1.02216 
757 1 757 1.15997 0.119979 0 -1.06791 
758 1 758 1.15994 0.159985 0 -0.895717 
759 1 759 1.15991 0.199993 0 -0.718946 
760 1 760 1.15987 0.240006 0 -0.79463 
761 1 761 1.15984 0.280023 0 -0.818803 
762 1 762 1.15982 0.320041 0 -0.337643 
763 1 763 1.1598 0.360059 0 0.285384 
764 1 764 1.15977 0.400074 0 0.178444 
765 1 765 1.15976 0.44009 0 -0.520683 
766 1 766 1.15974 0.480101 0 -1.51002 
767 1 767 1.15972 0.520115 0 -2.439 
768 1 768 1.15969 0.560126 0 -2.93521 
769 1 769 1.15966 0.60014 0 -3.11787 
770 1 770 1.15961 0.640149 0 -2.77009 
771 1 771 1.15956 0.680157 0 -2.42195 
772 1 772 1.15952 0.720159 0 -2.05457 
773 1 773 1.15948 0.760163 0 -2.37538 
774 1 774 1.15946 0.800165 0 -2.95578 
775 1 775 1.15945 0.840173 0 -3.21662 
776 1 776 1.15945 0.880184 0 -2.91196 
777 1 777 1.15945 0.920192 0 -1.57193 
778 1 778 1.15944 0.960206 0 -0.757912 
779 1 779 1.15944 1.00022 0 -0.657458 
780 1 780 1.2 0 0 0 
781 1 781 1.19998 0.0399854 0 -0.488635 
782 1 782 1.19997 0.0799801 0 -1.0901 