ITEM: TIMESTEP
0
ITEM: NUMBER OF ATOMS
6875
ITEM: BOX BOUNDS sm sm sm
0 4
0 2
0 0
ITEM: ATOMS id type tag x y z damage s11 s22 s33 s12 s13 s23 vx T ienergy 
1 1 1 0.0199964 0.0199979 0 0 -0.0546041 -0.055334 -0.0352262 -0.0197417 0 0 -0.0614945 0 0 
2 1 2 0.0199929 0.0599943 0 0 -0.092373 -0.0540069 -0.0469024 -0.02702 0 0 0.287015 0 0 
3 1 3 0.0199918 0.0999937 0 0 -0.109714 -0.0573106 -0.0535246 -0.0311056 0 0 0.225723 0 0 
4 1 4 0.0199911 0.139992 0 0 -0.137056 -0.0692945 -0.0661386 -0.0379166 0 0 0.286114 0 0 
5 1 5 0.0199891 0.179993 0 0 -0.157438 -0.066403 -0.071747 -0.0334703 0 0 0.297961 0 0 
6 1 6 0.0199879 0.219994 0 0 -0.176885 -0.0718479 -0.0797315 -0.0285158 0 0 0.288083 0 0 
7 1 7 0.0199863 0.259997 0 0 -0.192893 -0.0773766 -0.0866402 -0.0170618 0 0 0.120732 0 0 
8 1 8 0.0199856 0.299998 0 0 -0.210327 -0.0863663 -0.0951162 -0.0108227 0 0 0.0383464 0 0 
9 1 9 0.0199843 0.340001 0 0 -0.224772 -0.0977232 -0.103395 0.000591371 0 0 -0.19669 0 0 
10 1 10 0.0199843 0.380001 0 0 -0.233921 -0.100868 -0.107339 0.00297738 0 0 0.0371379 0 0 
11 1 11 0.0199836 0.420003 0 0 -0.234558 -0.108314 -0.109933 0.0143214 0 0 -0.116736 0 0 
12 1 12 0.0199839 0.460003 0 0 -0.22895 -0.10928 -0.108445 0.00852349 0 0 -0.113742 0 0 
13 1 13 0.0199818 0.500003 0 0 -0.229405 -0.111096 -0.109174 0.01144 0 0 -0.242958 0 0 
14 1 14 0.0199795 0.540001 0 0 -0.227236 -0.114786 -0.109665 0.00483893 0 0 -0.501822 0 0 
15 1 15 0.0199733 0.580001 0 0 -0.226321 -0.111986 -0.108474 0.00215917 0 0 -0.685027 0 0 
16 1 16 0.0199678 0.62 0 0 -0.227765 -0.106078 -0.107042 -0.00202628 0 0 -1.10577 0 0 
17 1 17 0.0199649 0.660001 0 0 -0.213156 -0.0967344 -0.0993557 0.00760294 0 0 -1.49537 0 0 
18 1 18 0.0199687 0.700001 0 0 -0.193403 -0.0818487 -0.0882404 0.00516032 0 0 -1.32796 0 0 
19 1 19 0.0199729 0.740004 0 0 -0.170931 -0.0727842 -0.0781219 0.0198599 0 0 -1.14795 0 0 
20 1 20 0.0199807 0.780003 0 0 -0.137805 -0.065584 -0.0651859 0.0174401 0 0 -0.909492 0 0 
21 1 21 0.0199838 0.820004 0 0 -0.123682 -0.0558495 -0.0575325 0.0161387 0 0 -0.24041 0 0 
22 1 22 0.0199892 0.860003 0 0 -0.106733 -0.0488959 -0.0498683 0.020845 0 0 -0.333788 0 0 
23 1 23 0.0199883 0.900007 0 0 -0.124679 -0.0363476 -0.0515981 0.0128607 0 0 0.563775 0 0 
24 1 24 0.0199885 0.940008 0 0 -0.158188 -0.0623681 -0.0706988 0.041704 0 0 -0.213601 0 0 
25 1 25 0.019981 0.980018 0 0 -0.203826 -0.0210437 -0.0820566 0.0261201 0 0 0.445641 0 0 
26 1 26 0.0599951 0.0199956 0 0 -0.0520107 -0.0854284 -0.044041 -0.0239524 0 0 0.182183 0 0 
27 1 27 0.059988 0.0599864 0 0 -0.0866408 -0.0829188 -0.0543394 -0.0232881 0 0 1.12507 0 0 
28 1 28 0.0599812 0.0999824 0 0 -0.115493 -0.0708871 -0.0597309 -0.0249062 0 0 0.728274 0 0 
29 1 29 0.0599754 0.139979 0 0 -0.148791 -0.0820254 -0.0739815 -0.0367495 0 0 0.824858 0 0 
30 1 30 0.0599686 0.179981 0 0 -0.172678 -0.0616605 -0.0751161 -0.0289628 0 0 0.970801 0 0 
31 1 31 0.0599649 0.219984 0 0 -0.200767 -0.070215 -0.0868734 -0.0279066 0 0 1.16417 0 0 
32 1 32 0.0599607 0.259989 0 0 -0.21372 -0.0646604 -0.0892479 -0.0184555 0 0 0.951958 0 0 
33 1 33 0.0599587 0.299994 0 0 -0.229306 -0.0787792 -0.0987766 -0.0177939 0 0 0.993301 0 0 
34 1 34 0.0599559 0.339999 0 0 -0.236105 -0.0840021 -0.102635 -0.00498554 0 0 0.548036 0 0 
35 1 35 0.0599559 0.380002 0 0 -0.239512 -0.0933656 -0.106732 -0.00631273 0 0 0.71192 0 0 
36 1 36 0.059956 0.420005 0 0 -0.236873 -0.0971472 -0.107097 0.010715 0 0 0.285523 0 0 
37 1 37 0.0599596 0.460005 0 0 -0.236544 -0.119428 -0.114146 0.00311218 0 0 0.523513 0 0 
38 1 38 0.059961 0.500005 0 0 -0.224421 -0.108243 -0.106664 0.00634839 0 0 0.930084 0 0 
39 1 39 0.0599662 0.540002 0 0 -0.226344 -0.132222 -0.114978 0.00329467 0 0 0.838225 0 0 
40 1 40 0.0599708 0.58 0 0 -0.218444 -0.109302 -0.105085 -0.0052732 0 0 1.4879 0 0 
41 1 41 0.0599763 0.619999 0 0 -0.224733 -0.112978 -0.108284 -0.0038877 0 0 1.56972 0 0 
42 1 42 0.0599793 0.66 0 0 -0.217176 -0.0812406 -0.0956729 0.0028886 0 0 1.9199 0 0 
43 1 43 0.059981 0.700003 0 0 -0.215114 -0.0901965 -0.0978861 0.00579358 0 0 1.93551 0 0 
44 1 44 0.0599811 0.740007 0 0 -0.173467 -0.0481146 -0.0710223 0.0174421 0 0 1.99071 0 0 
45 1 45 0.059984 0.780009 0 0 -0.166699 -0.0874055 -0.0814547 0.0219207 0 0 1.24023 0 0 
46 1 46 0.0599836 0.82001 0 0 -0.121699 -0.0348773 -0.0501708 0.0088811 0 0 1.6464 0 0 
47 1 47 0.0599813 0.860012 0 0 -0.151671 -0.0682375 -0.0704892 0.0225139 0 0 0.557449 0 0 
48 1 48 0.0599755 0.900015 0 0 -0.135283 -0.0193619 -0.049547 -0.00799364 0 0 1.44198 0 0 
49 1 49 0.0599652 0.940026 0 0 -0.194677 -0.0133868 -0.0666881 0.0236131 0 0 0.651865 0 0 
50 1 50 0.0599507 0.980041 0 0 -0.154255 0.0437403 -0.0354136 -0.0258808 0 0 1.64312 0 0 
51 1 51 0.0999915 0.0199946 0 0 -0.0531001 -0.0942994 -0.0472475 -0.0324926 0 0 0.00449888 0 0 
52 1 52 0.0999771 0.0599835 0 0 -0.0872527 -0.108198 -0.0626493 -0.0353895 0 0 0.930305 0 0 
53 1 53 0.0999656 0.0999759 0 0 -0.117328 -0.0850426 -0.0648615 -0.0283201 0 0 0.817046 0 0 
54 1 54 0.0999555 0.139972 0 0 -0.16415 -0.0947126 -0.0829826 -0.0431275 0 0 1.16045 0 0 
55 1 55 0.0999431 0.179972 0 0 -0.19051 -0.0700173 -0.0835208 -0.0366464 0 0 1.15384 0 0 
56 1 56 0.0999345 0.219976 0 0 -0.223041 -0.0789366 -0.096822 -0.0335916 0 0 1.25909 0 0 
57 1 57 0.0999279 0.259982 0 0 -0.232889 -0.0628485 -0.0948213 -0.0251459 0 0 1.13164 0 0 
58 1 58 0.0999248 0.299989 0 0 -0.240653 -0.0751461 -0.101257 -0.0203094 0 0 1.15753 0 0 
59 1 59 0.0999221 0.339995 0 0 -0.234991 -0.0685427 -0.0973213 -0.0119578 0 0 0.60158 0 0 
60 1 60 0.099922 0.380001 0 0 -0.238304 -0.0890756 -0.104971 -0.00865004 0 0 0.434229 0 0 
61 1 61 0.0999231 0.420004 0 0 -0.225396 -0.0832707 -0.0989634 0.0018762 0 0 0.05138 0 0 
62 1 62 0.0999265 0.460006 0 0 -0.227061 -0.116347 -0.110116 0.000608794 0 0 -0.0379648 0 0 
63 1 63 0.0999274 0.500005 0 0 -0.202737 -0.101908 -0.0976755 -0.00375283 0 0 0.32925 0 0 
64 1 64 0.099927 0.540002 0 0 -0.208519 -0.129352 -0.108336 -0.000703032 0 0 -0.103598 0 0 
65 1 65 0.0999212 0.579998 0 0 -0.192778 -0.0991363 -0.0935855 -0.0182818 0 0 0.164011 0 0 
66 1 66 0.0999129 0.619997 0 0 -0.205325 -0.108475 -0.100611 -0.00843007 0 0 -0.842684 0 0 
67 1 67 0.0999104 0.659998 0 0 -0.185966 -0.0595044 -0.0786852 -0.00977418 0 0 -0.774868 0 0 
68 1 68 0.0999147 0.700002 0 0 -0.198753 -0.078598 -0.088915 0.00380328 0 0 -0.747371 0 0 
69 1 69 0.0999265 0.740005 0 0 -0.167647 -0.0419729 -0.0671872 0.0109904 0 0 -0.119588 0 0 
70 1 70 0.0999401 0.780009 0 0 -0.169153 -0.0672479 -0.0757785 0.0166997 0 0 0.0839852 0 0 
71 1 71 0.0999494 0.820012 0 0 -0.153543 -0.0450162 -0.0636386 0.00237452 0 0 1.00046 0 0 
72 1 72 0.0999521 0.860017 0 0 -0.147414 -0.0416503 -0.0606004 0.00538131 0 0 0.966939 0 0 
73 1 73 0.0999472 0.900024 0 0 -0.173012 -0.030352 -0.0651759 -0.0154725 0 0 1.66042 0 0 
74 1 74 0.0999336 0.940034 0 0 -0.164926 0.00705841 -0.0505882 -0.0261833 0 0 1.32678 0 0 
75 1 75 0.0999225 0.980047 0 0 -0.155509 0.00118933 -0.049455 -0.0218855 0 0 2.02204 0 0 
76 1 76 0.139992 0.0199934 0 0 -0.0674411 -0.112995 -0.0578387 -0.0397105 0 0 0.213632 0 0 
77 1 77 0.139975 0.0599811 0 0 -0.0971524 -0.116957 -0.0686328 -0.044443 0 0 1.12675 0 0 
78 1 78 0.139956 0.0999719 0 0 -0.124565 -0.103813 -0.0732124 -0.0389562 0 0 0.876605 0 0 
79 1 79 0.139938 0.139966 0 0 -0.164929 -0.102149 -0.0856242 -0.053998 0 0 1.25305 0 0 
80 1 80 0.139919 0.179965 0 0 -0.199766 -0.088461 -0.0924089 -0.0486367 0 0 1.3601 0 0 
81 1 81 0.139906 0.219967 0 0 -0.230179 -0.0813105 -0.0998737 -0.043252 0 0 1.58251 0 0 
82 1 82 0.139896 0.259973 0 0 -0.245105 -0.0701674 -0.101089 -0.0328373 0 0 1.61133 0 0 
83 1 83 0.139892 0.29998 0 0 -0.251661 -0.0708908 -0.103427 -0.0241829 0 0 1.61043 0 0 
84 1 84 0.13989 0.339988 0 0 -0.253603 -0.0734484 -0.104872 -0.0205599 0 0 1.1849 0 0 
85 1 85 0.139891 0.379994 0 0 -0.24969 -0.0861652 -0.107693 -0.0104661 0 0 0.757572 0 0 
86 1 86 0.139896 0.419999 0 0 -0.233438 -0.0905191 -0.103871 -0.00299942 0 0 0.544373 0 0 
87 1 87 0.139903 0.46 0 0 -0.226532 -0.108363 -0.107382 -0.000732324 0 0 0.778516 0 0 
88 1 88 0.13991 0.499999 0 0 -0.208994 -0.113634 -0.103446 -0.00425788 0 0 1.37735 0 0 
89 1 89 0.139917 0.539995 0 0 -0.20907 -0.125032 -0.107126 -0.00845967 0 0 1.54144 0 0 
90 1 90 0.139922 0.579992 0 0 -0.202931 -0.108305 -0.0997863 -0.0219536 0 0 2.13785 0 0 
91 1 91 0.139925 0.61999 0 0 -0.212787 -0.113077 -0.104483 -0.0216742 0 0 2.13857 0 0 
92 1 92 0.139926 0.659991 0 0 -0.21683 -0.0815901 -0.0956754 -0.01897 0 0 2.7433 0 0 
93 1 93 0.139927 0.699994 0 0 -0.216011 -0.0821817 -0.0956054 -0.00892114 0 0 2.84871 0 0 
94 1 94 0.139931 0.739999 0 0 -0.205369 -0.0659311 -0.086976 0.00571221 0 0 2.95662 0 0 
95 1 95 0.139938 0.780003 0 0 -0.198892 -0.0586543 -0.0825662 0.000365606 0 0 2.62003 0 0 
96 1 96 0.13994 0.82001 0 0 -0.186536 -0.0486544 -0.0753907 -0.00660795 0 0 2.631 0 0 
97 1 97 0.139938 0.860016 0 0 -0.184943 -0.0419224 -0.0727199 -0.0114489 0 0 2.1502 0 0 
98 1 98 0.139927 0.900026 0 0 -0.168533 -0.0120914 -0.0578827 -0.0430073 0 0 2.85104 0 0 
99 1 99 0.13991 0.940035 0 0 -0.176648 -0.0366529 -0.0683765 -0.0255154 0 0 2.32383 0 0 
100 1 100 0.139899 0.980046 0 0 -0.152853 0.0173028 -0.0434416 -0.0300472 0 0 3.03473 0 0 
101 1 101 0.179988 0.0199927 0 0 -0.0734696 -0.12686 -0.0642076 -0.0492545 0 0 0.0361542 0 0 
102 1 102 0.179964 0.0599792 0 0 -0.0982403 -0.120026 -0.0699638 -0.0549791 0 0 0.544449 0 0 
103 1 103 0.179941 0.099969 0 0 -0.136156 -0.121753 -0.0826881 -0.0542602 0 0 0.582122 0 0 
104 1 104 0.179917 0.139961 0 0 -0.173814 -0.114581 -0.0924659 -0.0675406 0 0 1.16801 0 0 
105 1 105 0.179892 0.179958 0 0 -0.205244 -0.107526 -0.100285 -0.0596708 0 0 1.15823 0 0 
106 1 106 0.179874 0.219959 0 0 -0.224449 -0.0831386 -0.098618 -0.0521314 0 0 1.57923 0 0 
107 1 107 0.179861 0.259964 0 0 -0.246126 -0.0810785 -0.104915 -0.040072 0 0 1.65284 0 0 
108 1 108 0.179855 0.29997 0 0 -0.249345 -0.067803 -0.101692 -0.0300666 0 0 1.4024 0 0 
109 1 109 0.179854 0.339979 0 0 -0.243938 -0.0680536 -0.10004 -0.0256375 0 0 0.963545 0 0 
110 1 110 0.179857 0.379985 0 0 -0.231712 -0.0753287 -0.0984468 -0.0130656 0 0 0.470937 0 0 
111 1 111 0.179863 0.41999 0 0 -0.215849 -0.0792371 -0.0946054 -0.0070264 0 0 0.162671 0 0 
112 1 112 0.179871 0.459991 0 0 -0.20693 -0.0998351 -0.0983533 -0.00473349 0 0 0.293522 0 0 
113 1 113 0.179879 0.499991 0 0 -0.182341 -0.0933121 -0.0883715 -0.00527777 0 0 0.481217 0 0 
114 1 114 0.179881 0.539988 0 0 -0.183062 -0.117545 -0.0963761 -0.018077 0 0 0.793297 0 0 
115 1 115 0.179875 0.579984 0 0 -0.169152 -0.08798 -0.0824277 -0.0280109 0 0 0.70901 0 0 
116 1 116 0.179865 0.619982 0 0 -0.176296 -0.104401 -0.0899908 -0.0325827 0 0 -0.0596766 0 0 
117 1 117 0.179858 0.659981 0 0 -0.172914 -0.0653861 -0.0763874 -0.0321453 0 0 0.0291328 0 0 
118 1 118 0.179861 0.699984 0 0 -0.188684 -0.0750616 -0.084554 -0.00949399 0 0 -0.226187 0 0 
119 1 119 0.179874 0.739988 0 0 -0.184759 -0.047624 -0.0744906 -0.00443349 0 0 0.866176 0 0 
120 1 120 0.179887 0.779994 0 0 -0.20223 -0.0570681 -0.0831277 0.000852822 0 0 1.11322 0 0 
121 1 121 0.179898 0.820002 0 0 -0.191237 -0.0290194 -0.0705996 -0.0129467 0 0 1.9083 0 0 
122 1 122 0.179901 0.860012 0 0 -0.202846 -0.0423404 -0.0785933 -0.0210361 0 0 2.09374 0 0 
123 1 123 0.179894 0.900021 0 0 -0.177946 -0.00940006 -0.0600387 -0.0413104 0 0 2.92455 0 0 
124 1 124 0.179882 0.940033 0 0 -0.168723 -0.0181342 -0.0599027 -0.0345195 0 0 2.78242 0 0 
125 1 125 0.179872 0.980043 0 0 -0.146013 -0.0032275 -0.0478375 -0.0232699 0 0 3.39001 0 0 
126 1 126 0.219987 0.0199919 0 0 -0.0819049 -0.140525 -0.0712975 -0.0585903 0 0 0.179032 0 0 
127 1 127 0.219961 0.0599768 0 0 -0.101229 -0.12854 -0.0736497 -0.0627277 0 0 0.525232 0 0 
128 1 128 0.219932 0.0999653 0 0 -0.128031 -0.1276 -0.0819515 -0.0684023 0 0 0.436028 0 0 
129 1 129 0.219901 0.139956 0 0 -0.158436 -0.118018 -0.0886331 -0.080656 0 0 1.13923 0 0 
130 1 130 0.21987 0.179951 0 0 -0.188193 -0.109698 -0.0955096 -0.0719856 0 0 1.34253 0 0 
131 1 131 0.219847 0.21995 0 0 -0.217855 -0.0963746 -0.100747 -0.0659986 0 0 1.92991 0 0 
132 1 132 0.21983 0.259952 0 0 -0.244254 -0.0907677 -0.107419 -0.0496743 0 0 1.95933 0 0 
133 1 133 0.219822 0.299958 0 0 -0.254809 -0.0780443 -0.106729 -0.0363991 0 0 1.9505 0 0 
134 1 134 0.219821 0.339965 0 0 -0.255323 -0.0739204 -0.105577 -0.0275768 0 0 1.67105 0 0 
135 1 135 0.219826 0.379971 0 0 -0.253268 -0.0928153 -0.110981 -0.0150686 0 0 1.08463 0 0 
136 1 136 0.219836 0.419975 0 0 -0.232549 -0.0791705 -0.0999476 -0.00993459 0 0 0.866382 0 0 
137 1 137 0.219849 0.459977 0 0 -0.234588 -0.114524 -0.11195 -0.00571135 0 0 1.16961 0 0 
138 1 138 0.219862 0.499977 0 0 -0.211172 -0.0959228 -0.0984663 -0.00545311 0 0 1.58267 0 0 
139 1 139 0.219872 0.539975 0 0 -0.214173 -0.12602 -0.109085 -0.021233 0 0 2.16528 0 0 
140 1 140 0.219877 0.579973 0 0 -0.199856 -0.106298 -0.0981617 -0.0291544 0 0 2.56059 0 0 
141 1 141 0.219879 0.61997 0 0 -0.2133 -0.118808 -0.106492 -0.0380642 0 0 2.66739 0 0 
142 1 142 0.219875 0.659969 0 0 -0.222073 -0.102456 -0.104057 -0.0417342 0 0 3.41535 0 0 
143 1 143 0.219873 0.69997 0 0 -0.228789 -0.0910978 -0.102567 -0.0138174 0 0 2.89983 0 0 
144 1 144 0.219875 0.739975 0 0 -0.233972 -0.0723488 -0.0982127 -0.0162502 0 0 3.53436 0 0 
145 1 145 0.219879 0.779983 0 0 -0.234685 -0.0552326 -0.092948 -0.00451569 0 0 3.10977 0 0 
146 1 146 0.219882 0.819993 0 0 -0.219787 -0.0340473 -0.0813676 -0.013507 0 0 3.20004 0 0 
147 1 147 0.219879 0.860004 0 0 -0.215629 -0.0303971 -0.0788633 -0.023346 0 0 3.18193 0 0 
148 1 148 0.21987 0.900017 0 0 -0.192621 -0.00213162 -0.0624123 -0.0315683 0 0 3.51411 0 0 
149 1 149 0.219859 0.940029 0 0 -0.174934 -0.0211702 -0.0628675 -0.0253992 0 0 3.63956 0 0 
150 1 150 0.219851 0.98004 0 0 -0.145161 0.0044781 -0.0450939 -0.0189969 0 0 4.29185 0 0 
151 1 151 0.259983 0.0199916 0 0 -0.0806443 -0.14608 -0.0726786 -0.0672783 0 0 -0.0316206 0 0 
152 1 152 0.259951 0.0599751 0 0 -0.104465 -0.140505 -0.078525 -0.0699739 0 0 0.0483471 0 0 
153 1 153 0.259918 0.0999622 0 0 -0.135059 -0.139795 -0.0881151 -0.0792156 0 0 0.228992 0 0 
154 1 154 0.259884 0.139951 0 0 -0.157163 -0.132284 -0.0927979 -0.0893216 0 0 1.21231 0 0 
155 1 155 0.259848 0.179944 0 0 -0.176568 -0.11662 -0.0939984 -0.0852819 0 0 1.4194 0 0 
156 1 156 0.259818 0.21994 0 0 -0.211903 -0.116561 -0.105313 -0.0821453 0 0 2.12197 0 0 
157 1 157 0.259797 0.25994 0 0 -0.228315 -0.0902344 -0.10213 -0.0600759 0 0 2.25057 0 0 
158 1 158 0.259787 0.299944 0 0 -0.244201 -0.0862698 -0.10596 -0.0451142 0 0 2.14575 0 0 
159 1 159 0.259784 0.339949 0 0 -0.245687 -0.0765145 -0.103311 -0.0318465 0 0 1.60107 0 0 
160 1 160 0.25979 0.379954 0 0 -0.249183 -0.0938058 -0.109986 -0.0168408 0 0 0.98415 0 0 
161 1 161 0.259802 0.419959 0 0 -0.231727 -0.0841461 -0.101283 -0.0113152 0 0 0.764335 0 0 
162 1 162 0.259815 0.459961 0 0 -0.222454 -0.100988 -0.103716 -0.0107766 0 0 0.688355 0 0 
163 1 163 0.259828 0.499962 0 0 -0.204948 -0.09367 -0.095752 -0.0118096 0 0 0.721165 0 0 
164 1 164 0.259834 0.539961 0 0 -0.198685 -0.100836 -0.0960367 -0.0323772 0 0 0.924488 0 0 
165 1 165 0.259829 0.57996 0 0 -0.190569 -0.0990685 -0.0928633 -0.03707 0 0 0.717588 0 0 
166 1 166 0.259818 0.619958 0 0 -0.180283 -0.0939518 -0.0879195 -0.0443877 0 0 0.186439 0 0 
167 1 167 0.259807 0.659958 0 0 -0.177278 -0.0816512 -0.0830061 -0.0452219 0 0 0.323364 0 0 
168 1 168 0.259806 0.699959 0 0 -0.189406 -0.0739043 -0.0844101 -0.0116393 0 0 -0.355412 0 0 
169 1 169 0.259814 0.739964 0 0 -0.201415 -0.0491164 -0.0803108 -0.0159634 0 0 0.873859 0 0 
170 1 170 0.259823 0.779972 0 0 -0.222591 -0.0463368 -0.0862117 0.00146108 0 0 1.02136 0 0 
171 1 171 0.259834 0.819984 0 0 -0.216106 -0.00917934 -0.0722063 -0.0089789 0 0 2.00529 0 0 
172 1 172 0.259837 0.859999 0 0 -0.223545 -0.0229277 -0.0790071 -0.016777 0 0 2.91163 0 0 
173 1 173 0.259834 0.900013 0 0 -0.18623 0.0148432 -0.0549189 -0.0202185 0 0 3.44839 0 0 
174 1 174 0.259829 0.940027 0 0 -0.167196 -0.0154732 -0.0585575 -0.0143737 0 0 3.73314 0 0 
175 1 175 0.259827 0.980037 0 0 -0.124117 0.00595258 -0.0378709 -0.0115957 0 0 4.45986 0 0 
176 1 176 0.299983 0.0199907 0 0 -0.0896635 -0.159214 -0.0797859 -0.077723 0 0 -0.161655 0 0 
177 1 177 0.299949 0.0599724 0 0 -0.111769 -0.156665 -0.086056 -0.0815138 0 0 -0.0653969 0 0 
178 1 178 0.299911 0.0999577 0 0 -0.123292 -0.142661 -0.0852588 -0.0918887 0 0 0.348253 0 0 
179 1 179 0.299871 0.139945 0 0 -0.144357 -0.140625 -0.0913636 -0.100106 0 0 1.29779 0 0 
180 1 180 0.299831 0.179935 0 0 -0.172064 -0.132694 -0.0977108 -0.100483 0 0 1.73885 0 0 
181 1 181 0.299796 0.219928 0 0 -0.201773 -0.129171 -0.10611 -0.0938639 0 0 2.77652 0 0 
182 1 182 0.29977 0.259926 0 0 -0.219451 -0.100694 -0.102642 -0.0720898 0 0 2.96482 0 0 
183 1 183 0.299755 0.299927 0 0 -0.258113 -0.108044 -0.117412 -0.0578613 0 0 2.93601 0 0 
184 1 184 0.299751 0.33993 0 0 -0.273309 -0.103154 -0.120722 -0.0374176 0 0 2.45527 0 0 
185 1 185 0.299758 0.379934 0 0 -0.276755 -0.103456 -0.121927 -0.0227388 0 0 2.13806 0 0 
186 1 186 0.299771 0.419938 0 0 -0.28207 -0.118144 -0.128353 -0.0109415 0 0 1.84586 0 0 
187 1 187 0.299788 0.459939 0 0 -0.277693 -0.12095 -0.127856 -0.0105988 0 0 1.79072 0 0 
188 1 188 0.299805 0.499941 0 0 -0.276041 -0.121984 -0.127661 -0.0105754 0 0 1.96864 0 0 
189 1 189 0.299819 0.539941 0 0 -0.268827 -0.127102 -0.126983 -0.0279244 0 0 1.9604 0 0 
190 1 190 0.299826 0.579942 0 0 -0.254309 -0.111563 -0.117329 -0.0392552 0 0 2.417 0 0 
191 1 191 0.299828 0.619943 0 0 -0.264111 -0.123787 -0.124399 -0.0459026 0 0 2.5823 0 0 
192 1 192 0.299822 0.659944 0 0 -0.25534 -0.106917 -0.116166 -0.0510518 0 0 3.23426 0 0 
193 1 193 0.299815 0.699947 0 0 -0.263992 -0.102781 -0.117615 -0.0219021 0 0 2.61651 0 0 
194 1 194 0.299812 0.739954 0 0 -0.260405 -0.0646162 -0.104213 -0.0220241 0 0 3.11077 0 0 
195 1 195 0.299811 0.779964 0 0 -0.26165 -0.0563073 -0.101945 0.000658857 0 0 2.77583 0 0 
196 1 196 0.299812 0.819978 0 0 -0.247843 -0.011728 -0.0832058 -0.00607115 0 0 3.08607 0 0 
197 1 197 0.29981 0.859994 0 0 -0.240167 -0.0185595 -0.0829398 -0.0110931 0 0 3.41249 0 0 
198 1 198 0.299807 0.90001 0 0 -0.1989 0.0116405 -0.0600103 -0.00909743 0 0 3.82406 0 0 
199 1 199 0.299806 0.940024 0 0 -0.175849 -0.0194649 -0.0626103 -0.00222816 0 0 4.27275 0 0 
200 1 200 0.299808 0.980034 0 0 -0.124458 0.00264146 -0.0390391 -0.0020523 0 0 5.13733 0 0 
201 1 201 0.339979 0.0199897 0 0 -0.0912688 -0.17293 -0.0847014 -0.0857949 0 0 -0.470458 0 0 
202 1 202 0.339939 0.0599695 0 0 -0.111974 -0.170066 -0.0904225 -0.0881369 0 0 -0.384814 0 0 
203 1 203 0.339899 0.0999529 0 0 -0.129593 -0.155851 -0.0915138 -0.0988873 0 0 0.347746 0 0 
204 1 204 0.339857 0.139938 0 0 -0.151923 -0.158879 -0.0996496 -0.108713 0 0 1.28866 0 0 
205 1 205 0.339813 0.179926 0 0 -0.167467 -0.147531 -0.100998 -0.112114 0 0 2.03314 0 0 
206 1 206 0.339773 0.219916 0 0 -0.190865 -0.138859 -0.105722 -0.105032 0 0 3.09893 0 0 
207 1 207 0.339741 0.259911 0 0 -0.220214 -0.124507 -0.110533 -0.088308 0 0 3.08743 0 0 
208 1 208 0.339721 0.299909 0 0 -0.252657 -0.121157 -0.11987 -0.0715709 0 0 3.12413 0 0 
209 1 209 0.339714 0.33991 0 0 -0.264208 -0.110383 -0.120121 -0.0408574 0 0 2.46991 0 0 
210 1 210 0.33972 0.379913 0 0 -0.271358 -0.109378 -0.122093 -0.029723 0 0 2.28381 0 0 
211 1 211 0.339732 0.419915 0 0 -0.278834 -0.118122 -0.127303 -0.0171254 0 0 1.76515 0 0 
212 1 212 0.339748 0.459917 0 0 -0.275047 -0.121372 -0.127136 -0.0172508 0 0 1.09918 0 0 
213 1 213 0.339763 0.49992 0 0 -0.263876 -0.106391 -0.118744 -0.0223737 0 0 1.10662 0 0 
214 1 214 0.33977 0.539922 0 0 -0.265469 -0.11598 -0.12233 -0.0343308 0 0 0.418324 0 0 
215 1 215 0.339768 0.579924 0 0 -0.247084 -0.0957625 -0.109938 -0.0465994 0 0 0.4775 0 0 
216 1 216 0.339759 0.619927 0 0 -0.230668 -0.0854997 -0.101377 -0.0511781 0 0 0.027287 0 0 
217 1 217 0.339748 0.659931 0 0 -0.214042 -0.0748749 -0.0926299 -0.0479578 0 0 -0.110275 0 0 
218 1 218 0.339744 0.699937 0 0 -0.208246 -0.0560843 -0.0847408 -0.0259065 0 0 -0.197938 0 0 
219 1 219 0.339746 0.739945 0 0 -0.217978 -0.0333781 -0.0805766 -0.0204995 0 0 0.58827 0 0 
220 1 220 0.339752 0.779957 0 0 -0.236239 -0.0309229 -0.0856469 -0.000143377 0 0 0.888394 0 0 
221 1 221 0.339759 0.819973 0 0 -0.231699 0.0061773 -0.0722853 -0.00666963 0 0 2.17633 0 0 
222 1 222 0.339764 0.85999 0 0 -0.237514 -0.0200353 -0.0825665 -0.000864286 0 0 2.81359 0 0 
223 1 223 0.339769 0.900006 0 0 -0.192046 0.0135959 -0.0571903 -0.00451172 0 0 3.60374 0 0 
224 1 224 0.339777 0.940019 0 0 -0.167446 -0.0203445 -0.0601977 0.00777389 0 0 4.1561 0 0 
225 1 225 0.339787 0.980028 0 0 -0.115393 0.00640542 -0.0349243 0.00193333 0 0 5.15699 0 0 
226 1 226 0.379979 0.0199888 0 0 -0.100125 -0.1891 -0.0927291 -0.092578 0 0 -0.353505 0 0 
227 1 227 0.379938 0.0599664 0 0 -0.118861 -0.185717 -0.0976529 -0.095174 0 0 -0.0426699 0 0 
228 1 228 0.379894 0.0999476 0 0 -0.129232 -0.170082 -0.0959649 -0.106086 0 0 0.569885 0 0 
229 1 229 0.379847 0.13993 0 0 -0.14852 -0.17327 -0.103177 -0.115779 0 0 1.34581 0 0 
230 1 230 0.3798 0.179915 0 0 -0.163151 -0.160742 -0.103855 -0.120513 0 0 2.26976 0 0 
231 1 231 0.379756 0.219903 0 0 -0.186374 -0.15682 -0.11005 -0.116549 0 0 3.19678 0 0 
232 1 232 0.379718 0.259894 0 0 -0.214631 -0.142346 -0.114472 -0.103249 0 0 3.32204 0 0 
233 1 233 0.379693 0.299889 0 0 -0.248662 -0.137468 -0.123829 -0.0815501 0 0 3.75452 0 0 
234 1 234 0.379682 0.339888 0 0 -0.272302 -0.123337 -0.126883 -0.0486204 0 0 3.19025 0 0 
235 1 235 0.379685 0.379888 0 0 -0.307421 -0.143238 -0.144547 -0.0359421 0 0 3.06856 0 0 
236 1 236 0.379697 0.41989 0 0 -0.318146 -0.137627 -0.146189 -0.0179964 0 0 2.77451 0 0 
237 1 237 0.379714 0.459891 0 0 -0.333236 -0.145658 -0.153616 -0.0165294 0 0 2.28102 0 0 
238 1 238 0.379731 0.499894 0 0 -0.341669 -0.14192 -0.155127 -0.0186452 0 0 2.26369 0 0 
239 1 239 0.379746 0.539897 0 0 -0.333359 -0.127264 -0.147749 -0.0284434 0 0 1.6948 0 0 
240 1 240 0.379755 0.579903 0 0 -0.330495 -0.12363 -0.145664 -0.0397577 0 0 2.21364 0 0 
241 1 241 0.379759 0.619909 0 0 -0.317914 -0.106985 -0.136284 -0.0447909 0 0 2.59061 0 0 
242 1 242 0.379756 0.659917 0 0 -0.30704 -0.098981 -0.13022 -0.0487193 0 0 3.08287 0 0 
243 1 243 0.379748 0.699925 0 0 -0.306341 -0.0875946 -0.126339 -0.0364446 0 0 2.84036 0 0 
244 1 244 0.37974 0.739936 0 0 -0.289057 -0.052357 -0.109476 -0.0310862 0 0 2.92442 0 0 
245 1 245 0.379735 0.77995 0 0 -0.292376 -0.0527164 -0.110658 -0.0137965 0 0 2.76028 0 0 
246 1 246 0.379734 0.819966 0 0 -0.272999 -0.00857924 -0.0902739 -0.0174856 0 0 3.25041 0 0 
247 1 247 0.379735 0.859984 0 0 -0.257788 -0.0336545 -0.0934465 -0.00355651 0 0 3.29441 0 0 
248 1 248 0.379742 0.899998 0 0 -0.215991 -0.00874451 -0.0720425 -0.00451488 0 0 4.15245 0 0 
249 1 249 0.379753 0.94001 0 0 -0.191965 -0.0339608 -0.0724343 0.0123429 0 0 4.54534 0 0 
250 1 250 0.379768 0.980019 0 0 -0.135252 -0.00275144 -0.0442291 0.00370342 0 0 5.60836 0 0 
251 1 251 0.419976 0.0199879 0 0 -0.101078 -0.201305 -0.0969504 -0.0984593 0 0 -0.409619 0 0 
252 1 252 0.419929 0.059964 0 0 -0.117306 -0.194845 -0.100082 -0.102243 0 0 -0.11004 0 0 
253 1 253 0.419883 0.099943 0 0 -0.139131 -0.191074 -0.105878 -0.110846 0 0 0.515224 0 0 
254 1 254 0.419835 0.139923 0 0 -0.154196 -0.187965 -0.109716 -0.118382 0 0 1.40197 0 0 
255 1 255 0.419785 0.179906 0 0 -0.161705 -0.176361 -0.108405 -0.123008 0 0 2.30848 0 0 
256 1 256 0.419737 0.219891 0 0 -0.180874 -0.174569 -0.113984 -0.121841 0 0 2.94451 0 0 
257 1 257 0.419694 0.259879 0 0 -0.201995 -0.155481 -0.114635 -0.112443 0 0 3.0868 0 0 
258 1 258 0.419663 0.299871 0 0 -0.229275 -0.149909 -0.121603 -0.0887688 0 0 3.30892 0 0 
259 1 259 0.419648 0.339867 0 0 -0.2444 -0.12746 -0.119252 -0.0582372 0 0 2.77637 0 0 
260 1 260 0.419647 0.379865 0 0 -0.272117 -0.136329 -0.130994 -0.0443131 0 0 2.74657 0 0 
261 1 261 0.419656 0.419865 0 0 -0.277396 -0.123024 -0.128418 -0.0199361 0 0 2.27796 0 0 
262 1 262 0.41967 0.459867 0 0 -0.279585 -0.11535 -0.126656 -0.0250786 0 0 1.66088 0 0 
263 1 263 0.419682 0.499871 0 0 -0.294084 -0.116908 -0.131813 -0.027262 0 0 1.10119 0 0 
264 1 264 0.419689 0.539876 0 0 -0.290146 -0.091272 -0.122316 -0.0331714 0 0 0.218855 0 0 
265 1 265 0.419689 0.579884 0 0 -0.283815 -0.082079 -0.117334 -0.0466808 0 0 0.459571 0 0 
266 1 266 0.419682 0.619892 0 0 -0.263301 -0.0673944 -0.106041 -0.0412249 0 0 -0.035544 0 0 
267 1 267 0.419675 0.659902 0 0 -0.230508 -0.0439367 -0.0879885 -0.0453985 0 0 0.295843 0 0 
268 1 268 0.41967 0.699912 0 0 -0.230917 -0.0424261 -0.0876333 -0.0412033 0 0 0.572063 0 0 
269 1 269 0.419669 0.739925 0 0 -0.232142 -0.0193003 -0.0806042 -0.0308074 0 0 0.739139 0 0 
270 1 270 0.419672 0.779939 0 0 -0.245986 -0.027184 -0.0875782 -0.0248715 0 0 1.36227 0 0 
271 1 271 0.419677 0.819955 0 0 -0.24973 -0.00877149 -0.082872 -0.0234796 0 0 2.26504 0 0 
272 1 272 0.419687 0.859971 0 0 -0.252684 -0.0356475 -0.0924507 -0.00336779 0 0 2.49858 0 0 
273 1 273 0.419703 0.899984 0 0 -0.215784 -0.0152981 -0.0740823 -0.00971388 0 0 3.93998 0 0 
274 1 274 0.419722 0.939996 0 0 -0.193828 -0.0364459 -0.0738326 0.0176164 0 0 4.3451 0 0 
275 1 275 0.419744 0.980006 0 0 -0.148624 -0.000212898 -0.0477043 0.00384995 0 0 5.56473 0 0 
276 1 276 0.459976 0.019987 0 0 -0.116851 -0.219377 -0.107814 -0.104563 0 0 0.0197878 0 0 
277 1 277 0.459929 0.0599614 0 0 -0.132771 -0.210497 -0.110069 -0.108368 0 0 0.63029 0 0 
278 1 278 0.459878 0.0999386 0 0 -0.142191 -0.206798 -0.111907 -0.11495 0 0 0.910707 0 0 
279 1 279 0.459826 0.139917 0 0 -0.146237 -0.192524 -0.108626 -0.120914 0 0 1.55693 0 0 
280 1 280 0.459774 0.179898 0 0 -0.158101 -0.187868 -0.110942 -0.124722 0 0 2.10019 0 0 
281 1 281 0.459724 0.21988 0 0 -0.171946 -0.187047 -0.115122 -0.123447 0 0 2.51277 0 0 
282 1 282 0.459677 0.259866 0 0 -0.180878 -0.166267 -0.111319 -0.116303 0 0 2.90283 0 0 
283 1 283 0.459641 0.299854 0 0 -0.208709 -0.163698 -0.119427 -0.0927594 0 0 3.07886 0 0 
284 1 284 0.459622 0.339846 0 0 -0.235029 -0.145323 -0.121978 -0.0624064 0 0 2.89141 0 0 
285 1 285 0.459617 0.379841 0 0 -0.264409 -0.141856 -0.130294 -0.0465783 0 0 3.11135 0 0 
286 1 286 0.459623 0.41984 0 0 -0.286927 -0.130388 -0.133841 -0.0191219 0 0 2.84394 0 0 
287 1 287 0.459637 0.459842 0 0 -0.318473 -0.133981 -0.145129 -0.0234362 0 0 2.56621 0 0 
288 1 288 0.459649 0.499846 0 0 -0.338082 -0.126586 -0.149054 -0.0224366 0 0 2.32181 0 0 
289 1 289 0.459661 0.539853 0 0 -0.340596 -0.104184 -0.142663 -0.0216625 0 0 1.88271 0 0 
290 1 290 0.45967 0.579863 0 0 -0.341706 -0.0966852 -0.14061 -0.036273 0 0 2.50357 0 0 
291 1 291 0.459676 0.619874 0 0 -0.341397 -0.0900131 -0.138372 -0.0342379 0 0 2.67532 0 0 
292 1 292 0.459677 0.659886 0 0 -0.335836 -0.0827051 -0.134239 -0.0418095 0 0 3.33084 0 0 
293 1 293 0.45967 0.699898 0 0 -0.322655 -0.0808975 -0.129426 -0.0486554 0 0 3.67148 0 0 
294 1 294 0.45966 0.739911 0 0 -0.301912 -0.0541612 -0.11418 -0.039851 0 0 3.3269 0 0 
295 1 295 0.459654 0.779925 0 0 -0.303545 -0.0589241 -0.116237 -0.038233 0 0 3.30352 0 0 
296 1 296 0.459651 0.81994 0 0 -0.281522 -0.0358604 -0.101765 -0.0322667 0 0 3.49755 0 0 
297 1 297 0.459658 0.859954 0 0 -0.268207 -0.0516837 -0.102577 -0.0047808 0 0 3.21373 0 0 
298 1 298 0.459673 0.899966 0 0 -0.242075 -0.0343923 -0.0886424 -0.0105388 0 0 4.52285 0 0 
299 1 299 0.459694 0.939977 0 0 -0.225929 -0.0452107 -0.0869416 0.0186462 0 0 4.67923 0 0 
300 1 300 0.459718 0.979989 0 0 -0.194448 -0.0107393 -0.0657744 0.00130504 0 0 5.76025 0 0 
301 1 301 0.499973 0.0199863 0 0 -0.114938 -0.227933 -0.109947 -0.11171 0 0 0.141284 0 0 
302 1 302 0.49992 0.0599596 0 0 -0.125468 -0.213029 -0.108539 -0.113208 0 0 0.704544 0 0 
303 1 303 0.499868 0.0999359 0 0 -0.144553 -0.213477 -0.11481 -0.114966 0 0 0.902582 0 0 
304 1 304 0.499816 0.139913 0 0 -0.152882 -0.203959 -0.114429 -0.117934 0 0 1.47296 0 0 
305 1 305 0.499762 0.179893 0 0 -0.156583 -0.198231 -0.113781 -0.122232 0 0 1.64006 0 0 
306 1 306 0.49971 0.219873 0 0 -0.161888 -0.194862 -0.114402 -0.121193 0 0 1.90813 0 0 
307 1 307 0.499661 0.259856 0 0 -0.165272 -0.179782 -0.110646 -0.11591 0 0 2.30844 0 0 
308 1 308 0.499621 0.299841 0 0 -0.176129 -0.170438 -0.11113 -0.0948605 0 0 2.41776 0 0 
309 1 309 0.499597 0.339829 0 0 -0.18849 -0.144214 -0.10668 -0.0662333 0 0 2.59808 0 0 
310 1 310 0.499587 0.379822 0 0 -0.205965 -0.128959 -0.107389 -0.0474537 0 0 2.62195 0 0 
311 1 311 0.499588 0.41982 0 0 -0.2156 -0.103287 -0.102243 -0.0254211 0 0 2.22403 0 0 
312 1 312 0.499596 0.459821 0 0 -0.232445 -0.0920681 -0.104054 -0.0315798 0 0 1.80122 0 0 
313 1 313 0.499601 0.499826 0 0 -0.24069 -0.070853 -0.0998953 -0.0303418 0 0 1.15901 0 0 
314 1 314 0.499604 0.539835 0 0 -0.256302 -0.0562368 -0.100211 -0.0339215 0 0 0.669578 0 0 
315 1 315 0.499602 0.579846 0 0 -0.267034 -0.0539605 -0.102922 -0.0411728 0 0 0.606463 0 0 
316 1 316 0.499596 0.619858 0 0 -0.247875 -0.0372739 -0.0914204 -0.0355528 0 0 0.348653 0 0 
317 1 317 0.499593 0.659871 0 0 -0.225572 -0.023483 -0.0798396 -0.0393254 0 0 0.853481 0 0 
318 1 318 0.499591 0.699883 0 0 -0.225636 -0.036753 -0.084118 -0.0464774 0 0 1.301 0 0 
319 1 319 0.49959 0.739895 0 0 -0.22542 -0.0233268 -0.0797394 -0.0425198 0 0 1.45132 0 0 
320 1 320 0.499591 0.779908 0 0 -0.24309 -0.0396236 -0.0906412 -0.0419822 0 0 1.8184 0 0 
321 1 321 0.499596 0.81992 0 0 -0.245465 -0.033828 -0.0895407 -0.0325794 0 0 2.24277 0 0 
322 1 322 0.49961 0.859933 0 0 -0.25311 -0.0489736 -0.0968594 -0.00695937 0 0 2.50666 0 0 
323 1 323 0.499632 0.899944 0 0 -0.240321 -0.0399873 -0.0898716 -0.00966607 0 0 4.16344 0 0 
324 1 324 0.499658 0.939956 0 0 -0.228032 -0.0363035 -0.0847532 0.0213227 0 0 4.4476 0 0 
325 1 325 0.499684 0.979969 0 0 -0.217274 -0.00585594 -0.0715265 -0.00221888 0 0 5.65961 0 0 
326 1 326 0.539973 0.0199855 0 0 -0.134683 -0.245008 -0.121767 -0.120011 0 0 0.555924 0 0 
327 1 327 0.539919 0.059958 0 0 -0.152156 -0.228022 -0.12192 -0.117385 0 0 1.3126 0 0 
328 1 328 0.539863 0.0999341 0 0 -0.154476 -0.218423 -0.119585 -0.117069 0 0 1.24621 0 0 
329 1 329 0.539808 0.139911 0 0 -0.156288 -0.212597 -0.118295 -0.119675 0 0 1.55625 0 0 