ITEM: TIMESTEP
0
ITEM: NUMBER OF ATOMS
6875
ITEM: BOX BOUNDS sm sm sm
0 4
0 2
0 0
ITEM: ATOMS id type tag x y z damage s11 s22 s33 s12 s13 s23 vx T ienergy 
1 1 1 0.0199963 0.0199984 0 0 -0.0443478 -0.0438275 -0.0282489 -0.0158376 0 0 -0.00563439 0 0 
2 1 2 0.019993 0.0599956 0 0 -0.0779435 -0.0446786 -0.0392836 -0.0215113 0 0 0.0151856 0 0 
3 1 3 0.0199918 0.0999942 0 0 -0.111755 -0.0673151 -0.0573866 -0.0305565 0 0 -0.148025 0 0 
4 1 4 0.0199913 0.139991 0 0 -0.145075 -0.0851839 -0.0738066 -0.0403912 0 0 0.0253471 0 0 
5 1 5 0.019989 0.179989 0 0 -0.170564 -0.098403 -0.0862217 -0.0510374 0 0 -0.0348185 0 0 
6 1 6 0.0199878 0.219986 0 0 -0.189713 -0.104938 -0.0944619 -0.0623919 0 0 -0.102951 0 0 
7 1 7 0.0199861 0.259984 0 0 -0.208172 -0.107988 -0.101363 -0.0712276 0 0 0.0115107 0 0 
8 1 8 0.0199855 0.299983 0 0 -0.220892 -0.106418 -0.104939 -0.073784 0 0 0.112975 0 0 
9 1 9 0.0199841 0.339984 0 0 -0.223549 -0.102382 -0.104496 -0.071947 0 0 0.128709 0 0 
10 1 10 0.0199837 0.379984 0 0 -0.22791 -0.101452 -0.105595 -0.0704245 0 0 0.0853016 0 0 
11 1 11 0.0199811 0.419986 0 0 -0.237746 -0.101546 -0.108782 -0.0648316 0 0 0.0577977 0 0 
12 1 12 0.019978 0.459987 0 0 -0.252508 -0.11093 -0.116534 -0.0585003 0 0 -0.162745 0 0 
13 1 13 0.0199731 0.49999 0 0 -0.263836 -0.113687 -0.121057 -0.0518217 0 0 -0.434354 0 0 
14 1 14 0.0199692 0.539991 0 0 -0.281549 -0.121103 -0.129126 -0.0457285 0 0 -0.581739 0 0 
15 1 15 0.0199631 0.579993 0 0 -0.293749 -0.128827 -0.135525 -0.0348302 0 0 -0.551391 0 0 
16 1 16 0.0199569 0.619994 0 0 -0.301384 -0.131136 -0.138719 -0.0305274 0 0 -0.513058 0 0 
17 1 17 0.0199499 0.659996 0 0 -0.309436 -0.135188 -0.142607 -0.020028 0 0 -0.90837 0 0 
18 1 18 0.0199499 0.699996 0 0 -0.307254 -0.128488 -0.139756 -0.0119077 0 0 -1.51297 0 0 
19 1 19 0.0199519 0.74 0 0 -0.317074 -0.134332 -0.144785 -0.00185404 0 0 -1.5467 0 0 
20 1 20 0.0199574 0.780002 0 0 -0.332858 -0.126199 -0.147242 0.0104625 0 0 -1.37102 0 0 
21 1 21 0.0199605 0.820008 0 0 -0.355628 -0.146337 -0.161022 0.0339607 0 0 -1.22074 0 0 
22 1 22 0.0199658 0.860012 0 0 -0.365678 -0.132164 -0.159699 0.0482582 0 0 -0.864454 0 0 
23 1 23 0.0199655 0.90002 0 0 -0.399746 -0.150379 -0.176494 0.078952 0 0 -0.86748 0 0 
24 1 24 0.0199674 0.940026 0 0 -0.426215 -0.139513 -0.181517 0.107009 0 0 -0.371038 0 0 
25 1 25 0.019952 0.980046 0 0 -0.586037 -0.135212 -0.241491 0.124416 0 0 -0.676161 0 0 
26 1 26 0.0599962 0.0199957 0 0 -0.0522682 -0.0799848 -0.0423768 -0.0242755 0 0 0.096827 0 0 
27 1 27 0.0599903 0.0599875 0 0 -0.0853392 -0.0805348 -0.0531564 -0.0274515 0 0 0.286082 0 0 
28 1 28 0.0599824 0.0999813 0 0 -0.114255 -0.0947726 -0.0669928 -0.0376133 0 0 -0.112635 0 0 
29 1 29 0.0599775 0.139974 0 0 -0.132421 -0.108578 -0.0772458 -0.0456017 0 0 0.107418 0 0 
30 1 30 0.0599721 0.179967 0 0 -0.160295 -0.121727 -0.0904122 -0.0532169 0 0 0.158411 0 0 
31 1 31 0.0599687 0.219959 0 0 -0.185154 -0.126518 -0.0999277 -0.0578265 0 0 0.0754559 0 0 
32 1 32 0.0599633 0.259955 0 0 -0.205928 -0.120568 -0.104686 -0.0646269 0 0 0.160743 0 0 
33 1 33 0.0599606 0.299952 0 0 -0.219196 -0.112693 -0.106413 -0.0602719 0 0 0.052054 0 0 
34 1 34 0.0599585 0.339952 0 0 -0.227745 -0.0986444 -0.104649 -0.0617001 0 0 0.158271 0 0 
35 1 35 0.0599581 0.379953 0 0 -0.241118 -0.103792 -0.110591 -0.0595908 0 0 0.18996 0 0 
36 1 36 0.0599565 0.419956 0 0 -0.242607 -0.0877775 -0.105927 -0.0631936 0 0 0.458221 0 0 
37 1 37 0.0599574 0.459959 0 0 -0.258824 -0.103702 -0.116246 -0.0562194 0 0 0.469564 0 0 
38 1 38 0.0599576 0.499964 0 0 -0.269533 -0.0954677 -0.117042 -0.058401 0 0 0.849908 0 0 
39 1 39 0.0599583 0.539968 0 0 -0.289459 -0.109166 -0.127836 -0.0498625 0 0 0.881662 0 0 
40 1 40 0.0599599 0.579973 0 0 -0.299956 -0.105694 -0.130091 -0.042591 0 0 0.62546 0 0 
41 1 41 0.0599651 0.619979 0 0 -0.314647 -0.114995 -0.137796 -0.0317666 0 0 0.498822 0 0 
42 1 42 0.0599683 0.659986 0 0 -0.3233 -0.109056 -0.138667 -0.0222174 0 0 0.898342 0 0 
43 1 43 0.0599681 0.699994 0 0 -0.338767 -0.111858 -0.144535 -0.00554663 0 0 1.13559 0 0 
44 1 44 0.0599623 0.740003 0 0 -0.346373 -0.104697 -0.144677 0.00175926 0 0 1.54862 0 0 
45 1 45 0.0599526 0.780013 0 0 -0.352732 -0.0887504 -0.141598 0.0144139 0 0 1.4966 0 0 
46 1 46 0.0599431 0.820027 0 0 -0.368487 -0.0894838 -0.14689 0.0398722 0 0 1.01229 0 0 
47 1 47 0.0599337 0.860042 0 0 -0.392954 -0.0779119 -0.15104 0.0494833 0 0 1.29973 0 0 
48 1 48 0.0599235 0.90006 0 0 -0.414228 -0.0726756 -0.156179 0.0837859 0 0 0.751474 0 0 
49 1 49 0.0599104 0.940085 0 0 -0.479949 -0.0457171 -0.168641 0.0864534 0 0 1.03884 0 0 
50 1 50 0.0598764 0.980119 0 0 -0.451516 0.0305858 -0.135007 0.0218753 0 0 0.369343 0 0 
51 1 51 0.0999911 0.0199932 0 0 -0.0633615 -0.111284 -0.0559841 -0.0352692 0 0 -0.21324 0 0 
52 1 52 0.0999783 0.059981 0 0 -0.0848197 -0.115569 -0.0642317 -0.0367799 0 0 -0.030157 0 0 
53 1 53 0.0999701 0.0999691 0 0 -0.110183 -0.122339 -0.0745303 -0.041108 0 0 0.0797168 0 0 
54 1 54 0.0999637 0.139958 0 0 -0.138975 -0.132626 -0.0870671 -0.0500054 0 0 0.230229 0 0 
55 1 55 0.0999545 0.179947 0 0 -0.167569 -0.143491 -0.0997331 -0.0583282 0 0 0.273219 0 0 
56 1 56 0.0999464 0.219939 0 0 -0.187936 -0.137659 -0.104399 -0.0571678 0 0 0.260605 0 0 
57 1 57 0.0999379 0.259932 0 0 -0.207812 -0.129357 -0.108115 -0.0649919 0 0 0.529847 0 0 
58 1 58 0.0999312 0.299928 0 0 -0.22641 -0.122451 -0.111866 -0.0533555 0 0 0.234944 0 0 
59 1 59 0.0999261 0.339928 0 0 -0.23417 -0.103849 -0.108387 -0.059891 0 0 0.30395 0 0 
60 1 60 0.0999222 0.379929 0 0 -0.244713 -0.105027 -0.112146 -0.051242 0 0 -0.0531731 0 0 
61 1 61 0.0999174 0.419932 0 0 -0.243871 -0.0879969 -0.106406 -0.0625916 0 0 0.223699 0 0 
62 1 62 0.0999106 0.459937 0 0 -0.259897 -0.0959574 -0.114108 -0.0534703 0 0 0.0162423 0 0 
63 1 63 0.0999022 0.499943 0 0 -0.268465 -0.0849071 -0.113312 -0.0643441 0 0 -0.0170228 0 0 
64 1 64 0.0998926 0.53995 0 0 -0.289275 -0.0908946 -0.121912 -0.04994 0 0 -0.37451 0 0 
65 1 65 0.0998834 0.579958 0 0 -0.302485 -0.083749 -0.123856 -0.0470273 0 0 -0.387873 0 0 
66 1 66 0.0998724 0.619968 0 0 -0.321898 -0.0817318 -0.129444 -0.0303666 0 0 -0.362881 0 0 
67 1 67 0.0998638 0.659979 0 0 -0.324593 -0.076954 -0.128774 -0.0189262 0 0 -0.762276 0 0 
68 1 68 0.0998595 0.699992 0 0 -0.327808 -0.0611713 -0.124741 -0.00413825 0 0 -1.11101 0 0 
69 1 69 0.0998589 0.740008 0 0 -0.346965 -0.0620475 -0.131174 0.00589943 0 0 -1.48428 0 0 
70 1 70 0.0998577 0.780026 0 0 -0.356013 -0.0445139 -0.128451 0.0164784 0 0 -1.26204 0 0 
71 1 71 0.0998565 0.820048 0 0 -0.379483 -0.0346563 -0.132819 0.0373189 0 0 -1.35908 0 0 
72 1 72 0.0998526 0.860073 0 0 -0.39355 -0.0206485 -0.132847 0.0401429 0 0 -0.587519 0 0 
73 1 73 0.099845 0.900102 0 0 -0.421938 -0.00251507 -0.13613 0.0669623 0 0 -0.736927 0 0 
74 1 74 0.0998295 0.940135 0 0 -0.424355 0.0118869 -0.132284 0.0286883 0 0 -0.197823 0 0 
75 1 75 0.099801 0.980167 0 0 -0.401384 -0.00828752 -0.13139 0.0218802 0 0 -0.592734 0 0 
76 1 76 0.139993 0.0199912 0 0 -0.0741257 -0.143679 -0.0698241 -0.0390697 0 0 -0.0651209 0 0 
77 1 77 0.13998 0.0599743 0 0 -0.0881237 -0.142309 -0.0738677 -0.0398262 0 0 0.0807326 0 0 
78 1 78 0.139965 0.0999581 0 0 -0.116177 -0.155928 -0.0872396 -0.0469609 0 0 0.153534 0 0 
79 1 79 0.139953 0.139943 0 0 -0.140811 -0.150453 -0.0933824 -0.0536045 0 0 0.255061 0 0 
80 1 80 0.13994 0.17993 0 0 -0.172428 -0.16018 -0.106649 -0.0619389 0 0 0.653448 0 0 
81 1 81 0.139929 0.219919 0 0 -0.193979 -0.147147 -0.109383 -0.0610675 0 0 0.760147 0 0 
82 1 82 0.139916 0.259912 0 0 -0.217123 -0.140943 -0.114822 -0.0698657 0 0 0.871082 0 0 
83 1 83 0.139906 0.299907 0 0 -0.229053 -0.127119 -0.114217 -0.0548583 0 0 0.407249 0 0 
84 1 84 0.1399 0.339905 0 0 -0.234287 -0.110805 -0.110662 -0.0602324 0 0 0.497755 0 0 
85 1 85 0.139895 0.379906 0 0 -0.241949 -0.099891 -0.109613 -0.0493449 0 0 0.159813 0 0 
86 1 86 0.139891 0.419909 0 0 -0.250363 -0.0936081 -0.110292 -0.0590343 0 0 0.47477 0 0 
87 1 87 0.139888 0.459914 0 0 -0.261225 -0.085154 -0.111065 -0.050258 0 0 0.557063 0 0 
88 1 88 0.139884 0.499921 0 0 -0.2808 -0.081295 -0.116111 -0.0585552 0 0 1.07799 0 0 
89 1 89 0.139878 0.53993 0 0 -0.30072 -0.0741531 -0.120212 -0.045023 0 0 1.15483 0 0 
90 1 90 0.139874 0.579943 0 0 -0.32442 -0.0721095 -0.127162 -0.0397118 0 0 0.856855 0 0 
91 1 91 0.139873 0.619957 0 0 -0.339897 -0.056973 -0.127274 -0.0287669 0 0 1.01435 0 0 
92 1 92 0.139873 0.659976 0 0 -0.367996 -0.0622965 -0.138006 -0.0121417 0 0 1.09665 0 0 
93 1 93 0.139869 0.699995 0 0 -0.379702 -0.047423 -0.136993 -0.00696094 0 0 1.87492 0 0 
94 1 94 0.139857 0.740019 0 0 -0.385412 -0.0329214 -0.13417 0.00694294 0 0 1.74509 0 0 
95 1 95 0.139843 0.780043 0 0 -0.39312 -0.0245576 -0.133962 0.0109829 0 0 1.52146 0 0 
96 1 96 0.139826 0.820072 0 0 -0.394402 0.00495155 -0.124896 0.0273409 0 0 0.981887 0 0 
97 1 97 0.13981 0.860103 0 0 -0.411848 0.0116372 -0.128351 0.0268127 0 0 1.14102 0 0 
98 1 98 0.139791 0.900138 0 0 -0.408289 0.0267493 -0.12235 0.0350336 0 0 0.529391 0 0 
99 1 99 0.139771 0.940172 0 0 -0.404068 0.0156585 -0.12457 0.0155325 0 0 0.934021 0 0 
100 1 100 0.139743 0.980204 0 0 -0.388163 0.0115655 -0.120777 0.0116834 0 0 0.295432 0 0 
101 1 101 0.179989 0.0199897 0 0 -0.0815049 -0.168631 -0.080183 -0.0418289 0 0 -0.238628 0 0 
102 1 102 0.179971 0.0599688 0 0 -0.0940621 -0.17112 -0.0850136 -0.0449476 0 0 -0.272195 0 0 
103 1 103 0.179956 0.099949 0 0 -0.120222 -0.179209 -0.0960104 -0.0523791 0 0 0.235019 0 0 
104 1 104 0.179941 0.139931 0 0 -0.139583 -0.167331 -0.0984072 -0.0575711 0 0 0.565161 0 0 
105 1 105 0.179924 0.179916 0 0 -0.164223 -0.165246 -0.105642 -0.0647629 0 0 0.997098 0 0 
106 1 106 0.179907 0.219903 0 0 -0.191757 -0.158676 -0.112366 -0.0652692 0 0 1.07074 0 0 
107 1 107 0.17989 0.259894 0 0 -0.211705 -0.143234 -0.113815 -0.0707666 0 0 1.189 0 0 
108 1 108 0.179877 0.299889 0 0 -0.232146 -0.135687 -0.117961 -0.0562198 0 0 0.863907 0 0 
109 1 109 0.179867 0.339887 0 0 -0.244842 -0.116331 -0.115827 -0.0588986 0 0 0.57709 0 0 
110 1 110 0.179859 0.379888 0 0 -0.251734 -0.105262 -0.114481 -0.0469871 0 0 0.0208194 0 0 
111 1 111 0.179851 0.419892 0 0 -0.256237 -0.0883461 -0.11049 -0.0571304 0 0 0.275265 0 0 
112 1 112 0.179839 0.459898 0 0 -0.266804 -0.0780659 -0.110582 -0.0492213 0 0 0.10727 0 0 
113 1 113 0.179825 0.499908 0 0 -0.276034 -0.059741 -0.107664 -0.0588865 0 0 0.165837 0 0 
114 1 114 0.179809 0.539921 0 0 -0.291761 -0.0510332 -0.109915 -0.044088 0 0 0.0010675 0 0 
115 1 115 0.179792 0.579937 0 0 -0.31429 -0.0380341 -0.112974 -0.0414141 0 0 0.154183 0 0 
116 1 116 0.179773 0.619955 0 0 -0.338304 -0.0346324 -0.119593 -0.0235101 0 0 0.272226 0 0 
117 1 117 0.179759 0.659976 0 0 -0.340447 -0.0114254 -0.11283 -0.0103935 0 0 -0.237068 0 0 
118 1 118 0.17975 0.700001 0 0 -0.356013 -0.00950603 -0.117216 -0.0018129 0 0 -0.532733 0 0 
119 1 119 0.179744 0.740028 0 0 -0.355982 0.019418 -0.10792 0.00687527 0 0 -1.13211 0 0 
120 1 120 0.179739 0.780059 0 0 -0.373592 0.0164501 -0.114528 0.0071202 0 0 -0.920077 0 0 
121 1 121 0.179731 0.820092 0 0 -0.385433 0.0361536 -0.112 0.0169467 0 0 -1.12546 0 0 
122 1 122 0.179722 0.860128 0 0 -0.38983 0.0414612 -0.111704 0.0118752 0 0 -0.645809 0 0 
123 1 123 0.179711 0.900164 0 0 -0.392225 0.0331896 -0.115126 0.0261131 0 0 -0.852376 0 0 
124 1 124 0.179697 0.9402 0 0 -0.381869 0.0395208 -0.109792 0.00353553 0 0 -0.117265 0 0 
125 1 125 0.179676 0.980232 0 0 -0.359111 0.0137898 -0.110745 0.00664113 0 0 -0.561292 0 0 
126 1 126 0.219992 0.0199878 0 0 -0.0973758 -0.198273 -0.0947871 -0.0440127 0 0 -0.136089 0 0 
127 1 127 0.219974 0.0599632 0 0 -0.106956 -0.199802 -0.0983505 -0.0501408 0 0 -0.146199 0 0 
128 1 128 0.219954 0.0999406 0 0 -0.11711 -0.188916 -0.0981209 -0.0583189 0 0 0.344057 0 0 
129 1 129 0.219933 0.13992 0 0 -0.139518 -0.182171 -0.103148 -0.0621778 0 0 0.604019 0 0 
130 1 130 0.219912 0.179904 0 0 -0.162282 -0.169651 -0.106433 -0.0682267 0 0 1.07254 0 0 
131 1 131 0.219891 0.21989 0 0 -0.191181 -0.167585 -0.115039 -0.0691944 0 0 1.32262 0 0 
132 1 132 0.21987 0.25988 0 0 -0.205577 -0.143499 -0.111928 -0.0677792 0 0 1.30307 0 0 
133 1 133 0.219853 0.299873 0 0 -0.226149 -0.139306 -0.117194 -0.0545854 0 0 1.04977 0 0 
134 1 134 0.21984 0.339871 0 0 -0.236176 -0.11243 -0.111792 -0.0537112 0 0 0.79082 0 0 
135 1 135 0.219831 0.379872 0 0 -0.252232 -0.104994 -0.114559 -0.0404985 0 0 0.317441 0 0 
136 1 136 0.219823 0.419876 0 0 -0.261152 -0.0822682 -0.110122 -0.0511915 0 0 0.716265 0 0 
137 1 137 0.219814 0.459884 0 0 -0.273117 -0.0670064 -0.109065 -0.0422442 0 0 0.756873 0 0 
138 1 138 0.219803 0.499896 0 0 -0.294861 -0.0540362 -0.111883 -0.0560857 0 0 1.56187 0 0 
139 1 139 0.219789 0.539911 0 0 -0.321403 -0.0433353 -0.116965 -0.0410229 0 0 1.55489 0 0 
140 1 140 0.219777 0.57993 0 0 -0.336748 -0.0283462 -0.117079 -0.0433074 0 0 1.68306 0 0 
141 1 141 0.219768 0.619953 0 0 -0.359087 -0.0196947 -0.121474 -0.0273974 0 0 1.75256 0 0 
142 1 142 0.219761 0.65998 0 0 -0.387386 -0.01181 -0.128025 -0.0164855 0 0 1.97505 0 0 
143 1 143 0.219751 0.700009 0 0 -0.410897 -0.00418948 -0.133128 -0.012144 0 0 2.68156 0 0 
144 1 144 0.219735 0.740042 0 0 -0.421158 0.00530903 -0.133373 0.00110513 0 0 2.06566 0 0 
145 1 145 0.219717 0.780075 0 0 -0.413434 0.0254358 -0.124429 -0.00577066 0 0 1.95971 0 0 
146 1 146 0.219696 0.820112 0 0 -0.404628 0.0359572 -0.118221 0.00267462 0 0 1.07968 0 0 
147 1 147 0.219677 0.860147 0 0 -0.394707 0.0412487 -0.113339 -0.000346891 0 0 0.947094 0 0 
148 1 148 0.219659 0.900185 0 0 -0.38931 0.0444348 -0.11058 0.00656457 0 0 0.466699 0 0 
149 1 149 0.219642 0.940219 0 0 -0.381573 0.0316173 -0.112234 -0.00559134 0 0 0.799957 0 0 
150 1 150 0.219623 0.980252 0 0 -0.365336 0.0121166 -0.113281 0.0023164 0 0 0.182256 0 0 
151 1 151 0.259989 0.0199862 0 0 -0.105148 -0.222987 -0.105216 -0.04464 0 0 -0.110128 0 0 
152 1 152 0.259968 0.0599588 0 0 -0.110227 -0.21813 -0.105281 -0.0514423 0 0 -0.135805 0 0 
153 1 153 0.259947 0.0999344 0 0 -0.118286 -0.1953 -0.100543 -0.0610419 0 0 0.47837 0 0 
154 1 154 0.259924 0.139913 0 0 -0.140922 -0.191952 -0.106733 -0.0662428 0 0 0.70045 0 0 
155 1 155 0.259898 0.179895 0 0 -0.155219 -0.167594 -0.103504 -0.0691652 0 0 1.03632 0 0 
156 1 156 0.259872 0.219881 0 0 -0.176589 -0.159966 -0.107909 -0.0681119 0 0 1.40189 0 0 
157 1 157 0.259846 0.259872 0 0 -0.196255 -0.142959 -0.10876 -0.0643082 0 0 1.39332 0 0 
158 1 158 0.259825 0.299865 0 0 -0.224658 -0.139358 -0.116727 -0.051781 0 0 1.25654 0 0 
159 1 159 0.259807 0.339862 0 0 -0.241932 -0.1202 -0.116127 -0.0485748 0 0 0.922384 0 0 
160 1 160 0.259793 0.379863 0 0 -0.255024 -0.101854 -0.114444 -0.0356057 0 0 0.37691 0 0 
161 1 161 0.259779 0.419868 0 0 -0.269141 -0.0819442 -0.112585 -0.0480141 0 0 0.633515 0 0 
162 1 162 0.259762 0.459878 0 0 -0.279268 -0.0600788 -0.108822 -0.0404514 0 0 0.251564 0 0 
163 1 163 0.25974 0.499892 0 0 -0.284173 -0.036704 -0.102897 -0.0600946 0 0 0.702347 0 0 
164 1 164 0.259715 0.539909 0 0 -0.297329 -0.0166294 -0.100671 -0.0459562 0 0 0.53829 0 0 
165 1 165 0.25969 0.579932 0 0 -0.318203 -0.000684083 -0.10225 -0.0469603 0 0 1.01373 0 0 
166 1 166 0.259664 0.619956 0 0 -0.338239 0.00669744 -0.106309 -0.031281 0 0 1.08121 0 0 
167 1 167 0.259642 0.659985 0 0 -0.342725 0.0307204 -0.100037 -0.0190899 0 0 0.468399 0 0 
168 1 168 0.259626 0.700016 0 0 -0.347438 0.0400691 -0.0985484 -0.0139511 0 0 0.133828 0 0 
169 1 169 0.259616 0.74005 0 0 -0.350709 0.0568661 -0.094208 -0.00432121 0 0 -0.642538 0 0 
170 1 170 0.259608 0.780086 0 0 -0.371512 0.0476343 -0.103846 -0.0122496 0 0 -0.406714 0 0 
171 1 171 0.259599 0.820123 0 0 -0.372432 0.0576456 -0.100923 -0.00600774 0 0 -0.812337 0 0 
172 1 172 0.25959 0.86016 0 0 -0.375925 0.0470074 -0.105464 -0.00981883 0 0 -0.374037 0 0 
173 1 173 0.25958 0.900196 0 0 -0.372449 0.050541 -0.103209 -0.0046088 0 0 -0.428451 0 0 
174 1 174 0.25957 0.940232 0 0 -0.362707 0.039858 -0.103533 -0.012342 0 0 -0.0600924 0 0 
175 1 175 0.25956 0.980263 0 0 -0.335764 0.0198471 -0.101305 -0.000971047 0 0 -0.5613 0 0 
176 1 176 0.299991 0.0199849 0 0 -0.119122 -0.244788 -0.1167 -0.0444214 0 0 0.127549 0 0 
177 1 177 0.299971 0.0599555 0 0 -0.122805 -0.231384 -0.113575 -0.0519933 0 0 0.0560353 0 0 
178 1 178 0.299945 0.0999301 0 0 -0.124619 -0.203447 -0.105189 -0.0617522 0 0 0.474295 0 0 
179 1 179 0.299917 0.139908 0 0 -0.138046 -0.189722 -0.105093 -0.0657993 0 0 0.724984 0 0 
180 1 180 0.299887 0.179891 0 0 -0.150793 -0.160359 -0.0997613 -0.0668763 0 0 1.06376 0 0 
181 1 181 0.299857 0.219878 0 0 -0.1757 -0.153782 -0.10564 -0.063672 0 0 1.27822 0 0 
182 1 182 0.299827 0.259869 0 0 -0.196052 -0.144031 -0.10904 -0.0593507 0 0 1.18231 0 0 
183 1 183 0.299802 0.299861 0 0 -0.216728 -0.13404 -0.11247 -0.0454334 0 0 1.13702 0 0 
184 1 184 0.299781 0.339858 0 0 -0.23628 -0.120635 -0.114445 -0.0398289 0 0 0.939236 0 0 
185 1 185 0.299764 0.379858 0 0 -0.256883 -0.104597 -0.115914 -0.0280262 0 0 0.693228 0 0 
186 1 186 0.299749 0.419864 0 0 -0.270725 -0.0790597 -0.112165 -0.04159 0 0 1.0486 0 0 
187 1 187 0.299733 0.459873 0 0 -0.285354 -0.0613005 -0.111167 -0.0317965 0 0 1.00609 0 0 
188 1 188 0.299715 0.499888 0 0 -0.300302 -0.0354177 -0.107662 -0.0546956 0 0 2.12503 0 0 
189 1 189 0.299693 0.539906 0 0 -0.322775 -0.0229379 -0.110864 -0.0451238 0 0 2.23672 0 0 
190 1 190 0.299673 0.57993 0 0 -0.334194 0.00270445 -0.106293 -0.0514807 0 0 2.444 0 0 
191 1 191 0.299656 0.619957 0 0 -0.362446 0.00304751 -0.11525 -0.042788 0 0 2.45995 0 0 
192 1 192 0.299641 0.659989 0 0 -0.392746 0.0194466 -0.119711 -0.03631 0 0 2.70839 0 0 
193 1 193 0.299624 0.700022 0 0 -0.426968 0.00896402 -0.134063 -0.0300646 0 0 3.2163 0 0 
194 1 194 0.299605 0.740058 0 0 -0.427386 0.0259669 -0.128738 -0.0215772 0 0 2.69811 0 0 
195 1 195 0.299585 0.780094 0 0 -0.414442 0.0320492 -0.122629 -0.0271724 0 0 2.56671 0 0 
196 1 196 0.299564 0.820131 0 0 -0.39777 0.0385427 -0.115188 -0.0169632 0 0 1.42663 0 0 
197 1 197 0.299547 0.860167 0 0 -0.385837 0.0425452 -0.110079 -0.0241709 0 0 1.38378 0 0 
198 1 198 0.29953 0.900203 0 0 -0.378602 0.0411501 -0.1082 -0.0187395 0 0 0.936015 0 0 
199 1 199 0.299517 0.940236 0 0 -0.371236 0.0259211 -0.110742 -0.0201491 0 0 0.795918 0 0 
200 1 200 0.299509 0.980267 0 0 -0.355453 0.0106994 -0.110558 -0.00714735 0 0 0.231988 0 0 
201 1 201 0.339988 0.0199846 0 0 -0.120057 -0.251713 -0.119223 -0.0444159 0 0 0.276865 0 0 
202 1 202 0.339964 0.0599545 0 0 -0.12345 -0.233274 -0.114389 -0.0542968 0 0 0.309423 0 0 
203 1 203 0.339937 0.0999293 0 0 -0.132982 -0.205287 -0.108464 -0.0623847 0 0 0.721426 0 0 
204 1 204 0.339907 0.139908 0 0 -0.147433 -0.186778 -0.107161 -0.0653443 0 0 0.770833 0 0 
205 1 205 0.339873 0.179893 0 0 -0.155753 -0.153281 -0.099083 -0.0675829 0 0 0.827487 0 0 
206 1 206 0.339838 0.21988 0 0 -0.17723 -0.148608 -0.104474 -0.0625518 0 0 0.927019 0 0 
207 1 207 0.339805 0.259872 0 0 -0.193949 -0.137371 -0.10623 -0.0571424 0 0 0.960671 0 0 
208 1 208 0.339775 0.299865 0 0 -0.218828 -0.136472 -0.113925 -0.0447754 0 0 1.09786 0 0 
209 1 209 0.339749 0.339863 0 0 -0.239103 -0.121308 -0.115567 -0.0396447 0 0 0.966083 0 0 
210 1 210 0.339727 0.379862 0 0 -0.26365 -0.115765 -0.121667 -0.0290417 0 0 0.725136 0 0 
211 1 211 0.339704 0.419867 0 0 -0.27044 -0.0806959 -0.112594 -0.0415719 0 0 1.0265 0 0 
212 1 212 0.33968 0.459877 0 0 -0.284511 -0.0614333 -0.110933 -0.0373015 0 0 0.801359 0 0 
213 1 213 0.339651 0.499892 0 0 -0.288833 -0.0318185 -0.10282 -0.0603066 0 0 1.21647 0 0 
214 1 214 0.339618 0.539911 0 0 -0.294426 -0.00814108 -0.097012 -0.0548347 0 0 1.18264 0 0 
215 1 215 0.339585 0.579934 0 0 -0.312974 0.0124494 -0.0963541 -0.0601619 0 0 1.72211 0 0 
216 1 216 0.33955 0.619961 0 0 -0.328 0.0238623 -0.097515 -0.0493055 0 0 1.68502 0 0 
217 1 217 0.33952 0.659991 0 0 -0.322293 0.0547337 -0.0857762 -0.0418503 0 0 1.05924 0 0 
218 1 218 0.339499 0.700024 0 0 -0.324754 0.0581879 -0.085458 -0.0321563 0 0 0.415244 0 0 
219 1 219 0.339486 0.74006 0 0 -0.329908 0.0705664 -0.0831388 -0.0256619 0 0 -0.12412 0 0 
220 1 220 0.339477 0.780096 0 0 -0.348219 0.0608023 -0.0921462 -0.0295969 0 0 0.263007 0 0 
221 1 221 0.339469 0.820132 0 0 -0.353425 0.0563042 -0.0952566 -0.0235905 0 0 -0.0366235 0 0 
222 1 222 0.339462 0.860168 0 0 -0.357194 0.0484934 -0.0989815 -0.0285869 0 0 0.426293 0 0 
223 1 223 0.339454 0.900202 0 0 -0.351639 0.0453308 -0.0982098 -0.02585 0 0 0.168199 0 0 
224 1 224 0.339448 0.940235 0 0 -0.346446 0.0277553 -0.102197 -0.0240584 0 0 0.0593718 0 0 
225 1 225 0.339446 0.980264 0 0 -0.330499 0.0198082 -0.0996229 -0.00872721 0 0 -0.457969 0 0 
226 1 226 0.37999 0.0199847 0 0 -0.129681 -0.254106 -0.123078 -0.0467474 0 0 0.510282 0 0 
227 1 227 0.379966 0.0599547 0 0 -0.13947 -0.23842 -0.121182 -0.0570149 0 0 0.689368 0 0 
228 1 228 0.379934 0.0999304 0 0 -0.139049 -0.199646 -0.108601 -0.0653634 0 0 0.916325 0 0 
229 1 229 0.379898 0.139911 0 0 -0.150977 -0.179089 -0.105831 -0.0677133 0 0 0.832507 0 0 
230 1 230 0.37986 0.179897 0 0 -0.159067 -0.144879 -0.0974512 -0.0705822 0 0 0.79146 0 0 
231 1 231 0.379822 0.219886 0 0 -0.182183 -0.144942 -0.10489 -0.064259 0 0 0.705187 0 0 
232 1 232 0.379786 0.259878 0 0 -0.196377 -0.131889 -0.105254 -0.0593721 0 0 0.720916 0 0 
233 1 233 0.379752 0.299872 0 0 -0.220992 -0.139377 -0.115557 -0.0480817 0 0 0.782012 0 0 
234 1 234 0.379723 0.339868 0 0 -0.239211 -0.125628 -0.116994 -0.0443441 0 0 0.834991 0 0 
235 1 235 0.379697 0.379867 0 0 -0.266971 -0.118898 -0.123742 -0.0346793 0 0 1.03695 0 0 
236 1 236 0.379674 0.419871 0 0 -0.27996 -0.093306 -0.119696 -0.040268 0 0 1.30708 0 0 
237 1 237 0.37965 0.459879 0 0 -0.293203 -0.0694106 -0.116278 -0.0404098 0 0 1.6307 0 0 
238 1 238 0.379625 0.499893 0 0 -0.308792 -0.0434012 -0.112936 -0.0572022 0 0 2.61572 0 0 
239 1 239 0.379597 0.539911 0 0 -0.319954 -0.0253562 -0.110725 -0.0538794 0 0 2.90397 0 0 
240 1 240 0.379569 0.579934 0 0 -0.32488 0.00407105 -0.102862 -0.065296 0 0 3.23846 0 0 
241 1 241 0.379543 0.619962 0 0 -0.347994 0.00933706 -0.108595 -0.0572948 0 0 2.98647 0 0 
242 1 242 0.379522 0.659993 0 0 -0.377338 0.0241961 -0.113243 -0.0587966 0 0 3.33906 0 0 
243 1 243 0.379499 0.700026 0 0 -0.417492 0.00888499 -0.131049 -0.0469898 0 0 3.56337 0 0 
244 1 244 0.379477 0.740061 0 0 -0.418032 0.026119 -0.125686 -0.0404665 0 0 3.26104 0 0 
245 1 245 0.379456 0.780096 0 0 -0.405862 0.0237414 -0.122543 -0.0377062 0 0 2.99877 0 0 
246 1 246 0.379437 0.820131 0 0 -0.388005 0.0337284 -0.113604 -0.0339019 0 0 2.0856 0 0 
247 1 247 0.379421 0.860164 0 0 -0.377442 0.0318957 -0.110811 -0.0387878 0 0 1.95381 0 0 
248 1 248 0.379408 0.900198 0 0 -0.36555 0.0257715 -0.108958 -0.0326108 0 0 1.2224 0 0 
249 1 249 0.379399 0.940228 0 0 -0.362985 0.013141 -0.1122 -0.0319947 0 0 0.969107 0 0 
250 1 250 0.379396 0.980257 0 0 -0.357873 0.00617902 -0.112784 -0.0127571 0 0 0.421882 0 0 
251 1 251 0.419986 0.0199852 0 0 -0.124906 -0.246727 -0.119176 -0.0532153 0 0 0.570684 0 0 
252 1 252 0.419956 0.0599563 0 0 -0.13832 -0.230091 -0.118137 -0.0637306 0 0 0.912881 0 0 
253 1 253 0.419923 0.0999335 0 0 -0.148489 -0.194868 -0.110097 -0.0722112 0 0 1.20887 0 0 
254 1 254 0.419885 0.139915 0 0 -0.161495 -0.172306 -0.107031 -0.0732987 0 0 0.982265 0 0 
255 1 255 0.419843 0.179903 0 0 -0.169036 -0.14348 -0.100203 -0.0780551 0 0 0.7153 0 0 
256 1 256 0.419801 0.219893 0 0 -0.187143 -0.14115 -0.105267 -0.0706285 0 0 0.422768 0 0 
257 1 257 0.419762 0.259887 0 0 -0.198309 -0.130815 -0.105533 -0.0669106 0 0 0.418491 0 0 
258 1 258 0.419725 0.29988 0 0 -0.225887 -0.141414 -0.117786 -0.05901 0 0 0.460539 0 0 
259 1 259 0.41969 0.339877 0 0 -0.248405 -0.136629 -0.123479 -0.0542522 0 0 0.686812 0 0 
260 1 260 0.419659 0.379875 0 0 -0.264281 -0.119849 -0.123186 -0.0481637 0 0 1.1779 0 0 
261 1 261 0.419629 0.419879 0 0 -0.283013 -0.101641 -0.123355 -0.0529682 0 0 1.32208 0 0 
262 1 262 0.419596 0.459886 0 0 -0.298174 -0.0799053 -0.121243 -0.0561552 0 0 1.55813 0 0 
263 1 263 0.419561 0.4999 0 0 -0.28811 -0.035825 -0.103865 -0.0698516 0 0 1.99638 0 0 
264 1 264 0.419523 0.539917 0 0 -0.292156 -0.0208733 -0.100363 -0.0703305 0 0 2.06266 0 0 
265 1 265 0.419482 0.579939 0 0 -0.303302 0.0105776 -0.0938472 -0.0807856 0 0 2.68741 0 0 
266 1 266 0.41944 0.619964 0 0 -0.316896 0.0195022 -0.0953519 -0.0655231 0 0 2.23278 0 0 
267 1 267 0.419404 0.659992 0 0 -0.302026 0.0500449 -0.08078 -0.0614134 0 0 1.54403 0 0 
268 1 268 0.419377 0.700023 0 0 -0.289628 0.0629853 -0.0726506 -0.0460566 0 0 0.718478 0 0 
269 1 269 0.419361 0.740057 0 0 -0.295622 0.0734275 -0.0712207 -0.0419888 0 0 0.404861 0 0 
270 1 270 0.419351 0.78009 0 0 -0.320506 0.0546642 -0.0852264 -0.0366354 0 0 0.620448 0 0 
271 1 271 0.419345 0.820124 0 0 -0.330414 0.0523286 -0.0891543 -0.0371451 0 0 0.715019 0 0 
272 1 272 0.41934 0.860157 0 0 -0.342581 0.0359552 -0.0983216 -0.0375828 0 0 0.932959 0 0 
273 1 273 0.419335 0.900188 0 0 -0.340333 0.0312112 -0.0991223 -0.0339672 0 0 0.47995 0 0 
274 1 274 0.419332 0.940218 0 0 -0.345449 0.0150924 -0.105947 -0.0330046 0 0 0.461792 0 0 
275 1 275 0.419333 0.980247 0 0 -0.337331 0.0169343 -0.102738 -0.0101553 0 0 -0.231841 0 0 
276 1 276 0.459987 0.0199857 0 0 -0.13284 -0.243643 -0.120734 -0.0611955 0 0 0.692124 0 0 
277 1 277 0.459956 0.0599579 0 0 -0.150592 -0.225362 -0.120559 -0.0692017 0 0 1.14567 0 0 
278 1 278 0.459916 0.0999369 0 0 -0.154242 -0.188905 -0.11003 -0.079656 0 0 1.31281 0 0 
279 1 279 0.459873 0.13992 0 0 -0.167967 -0.169271 -0.108136 -0.0811327 0 0 1.01349 0 0 
280 1 280 0.459828 0.179908 0 0 -0.173884 -0.141807 -0.101222 -0.0873812 0 0 0.791824 0 0 
281 1 281 0.459784 0.219899 0 0 -0.188594 -0.138504 -0.104883 -0.0793604 0 0 0.35655 0 0 
282 1 282 0.459741 0.259892 0 0 -0.202611 -0.132773 -0.107541 -0.0765364 0 0 0.376395 0 0 
283 1 283 0.459702 0.299886 0 0 -0.221804 -0.140616 -0.116218 -0.0701421 0 0 0.614448 0 0 
284 1 284 0.459664 0.339882 0 0 -0.239869 -0.134487 -0.12005 -0.0660796 0 0 0.954331 0 0 
285 1 285 0.45963 0.379879 0 0 -0.269991 -0.132204 -0.128985 -0.0614418 0 0 1.43524 0 0 
286 1 286 0.459598 0.419881 0 0 -0.28352 -0.107479 -0.12539 -0.0634002 0 0 1.75483 0 0 
287 1 287 0.459567 0.459887 0 0 -0.302769 -0.090446 -0.126105 -0.0681154 0 0 2.5374 0 0 
288 1 288 0.459535 0.499898 0 0 -0.318854 -0.059621 -0.121376 -0.0747838 0 0 3.21191 0 0 
289 1 289 0.459501 0.539914 0 0 -0.335367 -0.0482686 -0.123028 -0.080349 0 0 3.58779 0 0 
290 1 290 0.459467 0.579935 0 0 -0.328473 -0.00845301 -0.108032 -0.0917548 0 0 3.80616 0 0 
291 1 291 0.459436 0.619961 0 0 -0.332661 0.00666523 -0.104528 -0.0822881 0 0 3.45446 0 0 
292 1 292 0.459408 0.659989 0 0 -0.365075 0.0109055 -0.113571 -0.0859979 0 0 3.84317 0 0 
293 1 293 0.459381 0.70002 0 0 -0.401852 0.00172164 -0.128327 -0.0667945 0 0 3.78116 0 0 
294 1 294 0.459357 0.740052 0 0 -0.402737 0.0123459 -0.125196 -0.0632642 0 0 3.78234 0 0 
295 1 295 0.459334 0.780084 0 0 -0.394599 0.0100505 -0.123325 -0.0489905 0 0 3.20098 0 0 
296 1 296 0.459316 0.820116 0 0 -0.378652 0.0252014 -0.11334 -0.0506388 0 0 2.71514 0 0 
297 1 297 0.459301 0.860147 0 0 -0.37752 0.0106794 -0.117647 -0.0438303 0 0 2.25262 0 0 
298 1 298 0.45929 0.900178 0 0 -0.364622 0.0178378 -0.111209 -0.0361561 0 0 1.42302 0 0 
299 1 299 0.459282 0.940207 0 0 -0.370943 0.00256376 -0.118149 -0.0370459 0 0 1.37372 0 0 
300 1 300 0.459282 0.980236 0 0 -0.371137 -6.08355e-05 -0.119043 -0.00829365 0 0 0.549183 0 0 
301 1 301 0.499981 0.0199865 0 0 -0.125683 -0.232445 -0.114843 -0.0732384 0 0 0.566342 0 0 
302 1 302 0.499943 0.0599602 0 0 -0.148678 -0.215183 -0.116678 -0.0789095 0 0 1.03344 0 0 
303 1 303 0.499902 0.0999403 0 0 -0.162456 -0.187655 -0.112267 -0.0906084 0 0 1.43169 0 0 
304 1 304 0.499857 0.139924 0 0 -0.173299 -0.1695 -0.109921 -0.0904666 0 0 1.16025 0 0 
305 1 305 0.499809 0.179912 0 0 -0.176238 -0.143471 -0.102512 -0.096673 0 0 0.891682 0 0 
306 1 306 0.499762 0.219903 0 0 -0.190052 -0.139623 -0.10571 -0.0910781 0 0 0.419261 0 0 
307 1 307 0.499717 0.259896 0 0 -0.202219 -0.135473 -0.10828 -0.0893491 0 0 0.396234 0 0 
308 1 308 0.499674 0.29989 0 0 -0.221023 -0.14288 -0.116692 -0.0850008 0 0 0.54756 0 0 
309 1 309 0.499633 0.339885 0 0 -0.240359 -0.139382 -0.121776 -0.0860323 0 0 0.919567 0 0 
310 1 310 0.499593 0.379882 0 0 -0.265699 -0.138025 -0.129473 -0.0842394 0 0 1.52125 0 0 
311 1 311 0.499554 0.419883 0 0 -0.282527 -0.117078 -0.128152 -0.0833672 0 0 1.74577 0 0 
312 1 312 0.499514 0.459887 0 0 -0.298019 -0.0985941 -0.127197 -0.0952282 0 0 2.34751 0 0 
313 1 313 0.499471 0.499898 0 0 -0.293582 -0.0605608 -0.113566 -0.0980193 0 0 2.38164 0 0 
314 1 314 0.499427 0.539912 0 0 -0.296148 -0.0371399 -0.106867 -0.106865 0 0 2.71288 0 0 
315 1 315 0.499381 0.579932 0 0 -0.306517 -0.00558915 -0.100066 -0.112827 0 0 3.10262 0 0 
316 1 316 0.499335 0.619954 0 0 -0.311776 0.00881443 -0.0971339 -0.0954979 0 0 2.5635 0 0 
317 1 317 0.499293 0.659981 0 0 -0.283247 0.0439274 -0.076715 -0.0952758 0 0 2.07508 0 0 
318 1 318 0.499263 0.700009 0 0 -0.259426 0.0625632 -0.0630974 -0.0693245 0 0 0.836172 0 0 
319 1 319 0.499244 0.74004 0 0 -0.266763 0.0686947 -0.063482 -0.0689807 0 0 0.804351 0 0 
320 1 320 0.499233 0.780071 0 0 -0.302015 0.0495786 -0.0809262 -0.0526146 0 0 0.791443 0 0 
321 1 321 0.499226 0.820103 0 0 -0.323751 0.0499911 -0.0877641 -0.0549474 0 0 1.21729 0 0 
322 1 322 0.49922 0.860135 0 0 -0.350721 0.0225471 -0.105233 -0.0432091 0 0 1.2081 0 0 
323 1 323 0.499217 0.900166 0 0 -0.354373 0.0279227 -0.104679 -0.0361553 0 0 0.922749 0 0 
324 1 324 0.499214 0.940196 0 0 -0.362941 0.00638684 -0.114349 -0.0347445 0 0 1.14246 0 0 
325 1 325 0.499217 0.980224 0 0 -0.347316 0.0135367 -0.10703 -0.00316142 0 0 0.111807 0 0 
326 1 326 0.539981 0.0199867 0 0 -0.133371 -0.231583 -0.117034 -0.0873669 0 0 0.585831 0 0 
327 1 327 0.53994 0.0599613 0 0 -0.159417 -0.212793 -0.119361 -0.0890439 0 0 1.00153 0 0 
328 1 328 0.539892 0.0999421 0 0 -0.166294 -0.188533 -0.113782 -0.0991409 0 0 1.27103 0 0 
329 1 329 0.539843 0.139926 0 0 -0.176337 -0.169675 -0.110953 -0.100707 0 0 1.10483 0 0 
330 1 330 0.539793 0.179914 0 0 -0.186262 -0.154376 -0.109229 -0.106029 0 0 0.981261 0 0 