ITEM: TIMESTEP
0
ITEM: NUMBER OF ATOMS
7127
ITEM: BOX BOUNDS sm sm sm
0 4
0 2
0 0
ITEM: ATOMS id type tag x y z vx 
0 1 0 0 0 0 0 
1 1 1 0 0.04 0 0 
2 1 2 0 0.08 0 0 
3 1 3 0 0.12 0 0 
4 1 4 0 0.16 0 0 
5 1 5 0 0.2 0 0 
6 1 6 0 0.24 0 0 
7 1 7 0 0.28 0 0 
8 1 8 0 0.32 0 0 
9 1 9 0 0.36 0 0 
10 1 10 0 0.4 0 0 
11 1 11 0 0.44 0 0 
12 1 12 0 0.48 0 0 
13 1 13 0 0.52 0 0 
14 1 14 0 0.56 0 0 
15 1 15 0 0.6 0 0 
16 1 16 0 0.64 0 0 
17 1 17 0 0.68 0 0 
18 1 18 0 0.72 0 0 
19 1 19 0 0.76 0 0 
20 1 20 0 0.8 0 0 
21 1 21 0 0.84 0 0 
22 1 22 0 0.88 0 0 
23 1 23 0 0.92 0 0 
24 1 24 0 0.96 0 0 
25 1 25 0 1 0 0 
26 1 26 0.04 0 0 0 
27 1 27 0.0399852 0.0399843 0 0.089886 
28 1 28 0.0399774 0.0799785 0 0.23324 
29 1 29 0.0399751 0.119976 0 0.301054 
30 1 30 0.0399691 0.159975 0 0.266686 
31 1 31 0.0399663 0.199978 0 0.219442 
32 1 32 0.039963 0.239982 0 0.264133 
33 1 33 0.0399638 0.279988 0 0.30019 
34 1 34 0.0399641 0.319995 0 0.239411 
35 1 35 0.0399674 0.359999 0 0.122732 
36 1 36 0.0399662 0.400002 0 0.0261827 
37 1 37 0.0399708 0.440002 0 0.02971 
38 1 38 0.039967 0.480002 0 0.0461876 
39 1 39 0.0399702 0.520001 0 -0.0405112 
40 1 40 0.0399686 0.560001 0 0.0316769 
41 1 41 0.0399701 0.600001 0 -0.0444619 
42 1 42 0.0399692 0.640001 0 -0.0187438 
43 1 43 0.0399721 0.680001 0 0.163988 
44 1 44 0.0399676 0.720005 0 0.323993 
45 1 45 0.0399721 0.760006 0 0.595131 
46 1 46 0.0399686 0.80001 0 0.954152 
47 1 47 0.0399681 0.840014 0 1.02236 
48 1 48 0.039969 0.880019 0 1.11229 
49 1 49 0.0399611 0.920029 0 0.757748 
50 1 50 0.0399706 0.960033 0 0.45056 
51 1 51 0.0399292 1.00007 0 0.750341 
52 1 52 0.08 0 0 0 
53 1 53 0.079978 0.0399811 0 0.200254 
54 1 54 0.0799602 0.0799674 0 0.41889 
55 1 55 0.0799531 0.119962 0 0.56221 
56 1 56 0.0799406 0.159959 0 0.533739 
57 1 57 0.0799326 0.199963 0 0.478004 
58 1 58 0.079926 0.239969 0 0.552187 
59 1 59 0.0799242 0.279978 0 0.565091 
60 1 60 0.079925 0.319986 0 0.470092 
61 1 61 0.0799306 0.359995 0 0.274367 
62 1 62 0.0799333 0.399998 0 0.1319 
63 1 63 0.0799397 0.440001 0 0.103982 
64 1 64 0.0799376 0.479999 0 0.169616 
65 1 65 0.0799382 0.520001 0 0.10838 
66 1 66 0.0799391 0.559998 0 0.240943 
67 1 67 0.0799367 0.600001 0 0.0864325 
68 1 68 0.0799408 0.64 0 0.0197863 
69 1 69 0.0799368 0.680005 0 0.189881 
70 1 70 0.0799378 0.720007 0 0.477754 
71 1 71 0.079936 0.760016 0 1.11391 
72 1 72 0.0799382 0.800018 0 1.74115 
73 1 73 0.0799329 0.84003 0 1.95444 
74 1 74 0.0799337 0.880034 0 1.94232 
75 1 75 0.0799267 0.920048 0 1.453 
76 1 76 0.0799176 0.960074 0 0.957347 
77 1 77 0.0799022 1.00008 0 1.09001 
78 1 78 0.12 0 0 0 
79 1 79 0.119973 0.0399791 0 0.342996 
80 1 80 0.119949 0.0799623 0 0.61592 
81 1 81 0.119933 0.119953 0 0.81946 
82 1 82 0.119914 0.159949 0 0.809467 
83 1 83 0.119902 0.199953 0 0.717644 
84 1 84 0.119891 0.239959 0 0.777223 
85 1 85 0.119886 0.279969 0 0.827561 
86 1 86 0.119887 0.319977 0 0.796887 
87 1 87 0.119894 0.359986 0 0.555517 
88 1 88 0.119901 0.399989 0 0.401026 
89 1 89 0.119907 0.439993 0 0.355626 
90 1 90 0.119908 0.479993 0 0.447226 
91 1 91 0.119908 0.519995 0 0.478674 
92 1 92 0.119909 0.559996 0 0.558619 
93 1 93 0.119907 0.599998 0 0.320069 
94 1 94 0.11991 0.64 0 0.118573 
95 1 95 0.119907 0.680005 0 0.194776 
96 1 96 0.119904 0.720011 0 0.591563 
97 1 97 0.119905 0.760018 0 1.46189 
98 1 98 0.119903 0.800029 0 2.22831 
99 1 99 0.119901 0.840037 0 2.58378 
100 1 100 0.119897 0.88005 0 2.59104 
101 1 101 0.119885 0.920066 0 2.03464 
102 1 102 0.119881 0.960079 0 1.37602 
103 1 103 0.119869 1.0001 0 1.30558 
104 1 104 0.16 0 0 0 
105 1 105 0.159969 0.0399789 0 0.411521 
106 1 106 0.159941 0.0799605 0 0.757915 
107 1 107 0.159918 0.119948 0 1.05725 
108 1 108 0.159892 0.159943 0 1.04202 
109 1 109 0.159873 0.199944 0 0.90533 
110 1 110 0.159856 0.239949 0 0.980616 
111 1 111 0.159847 0.279958 0 1.08712 
112 1 112 0.159849 0.319966 0 1.09625 
113 1 113 0.159856 0.359973 0 0.847866 
114 1 114 0.159866 0.399979 0 0.731606 
115 1 115 0.159873 0.439982 0 0.765151 
116 1 116 0.159876 0.479986 0 0.911426 
117 1 117 0.159876 0.519987 0 1.04292 
118 1 118 0.159875 0.55999 0 1.01471 
119 1 119 0.159876 0.599995 0 0.675452 
120 1 120 0.159875 0.639998 0 0.374151 
121 1 121 0.159873 0.680005 0 0.269141 
122 1 122 0.15987 0.72001 0 0.779851 
123 1 123 0.159869 0.760021 0 1.70582 
124 1 124 0.159869 0.80003 0 2.49539 
125 1 125 0.159866 0.840045 0 2.98085 
126 1 126 0.15986 0.880057 0 3.03948 
127 1 127 0.159848 0.920074 0 2.51972 
128 1 128 0.159844 0.96009 0 1.82452 
129 1 129 0.159832 1.00011 0 1.6963 
130 1 130 0.2 0 0 0 
131 1 131 0.199967 0.0399788 0 0.405294 
132 1 132 0.199935 0.0799598 0 0.843899 
133 1 133 0.199904 0.119946 0 1.17686 
134 1 134 0.199871 0.159939 0 1.10791 
135 1 135 0.199845 0.199936 0 1.02028 
136 1 136 0.199822 0.23994 0 1.12229 
137 1 137 0.199811 0.279946 0 1.20257 
138 1 138 0.19981 0.319952 0 1.25934 
139 1 139 0.199817 0.35996 0 1.14317 
140 1 140 0.199829 0.399965 0 1.16612 
141 1 141 0.199838 0.43997 0 1.29852 
142 1 142 0.199843 0.479974 0 1.54414 
143 1 143 0.199845 0.519979 0 1.77748 
144 1 144 0.199844 0.559981 0 1.71374 
145 1 145 0.199846 0.599988 0 1.31831 
146 1 146 0.199846 0.639993 0 0.881888 
147 1 147 0.199843 0.680003 0 0.537984 
148 1 148 0.199843 0.72001 0 1.02555 
149 1 149 0.199837 0.760021 0 1.8558 
150 1 150 0.199838 0.800033 0 2.62068 
151 1 151 0.199832 0.840045 0 3.23601 
152 1 152 0.199825 0.880063 0 3.2607 
153 1 153 0.199814 0.920078 0 2.88416 
154 1 154 0.199806 0.960094 0 2.33127 
155 1 155 0.199799 1.00011 0 2.16737 
156 1 156 0.24 0 0 0 
157 1 157 0.239964 0.0399784 0 0.417035 
158 1 158 0.23993 0.0799593 0 0.891617 
159 1 159 0.239891 0.119944 0 1.20093 
160 1 160 0.239851 0.159935 0 1.16362 
161 1 161 0.239817 0.19993 0 1.11673 
162 1 162 0.239788 0.239931 0 1.09428 
163 1 163 0.239774 0.279934 0 1.10082 
164 1 164 0.23977 0.319938 0 1.24454 
165 1 165 0.239777 0.359945 0 1.27816 
166 1 166 0.239789 0.39995 0 1.48033 
167 1 167 0.239799 0.439959 0 1.73208 
168 1 168 0.239806 0.479964 0 2.10715 
169 1 169 0.23981 0.51997 0 2.485 
170 1 170 0.23981 0.559974 0 2.46004 
171 1 171 0.239813 0.599979 0 2.10529 
172 1 172 0.23981 0.639987 0 1.5856 
173 1 173 0.239808 0.679995 0 1.07407 
174 1 174 0.239809 0.720006 0 1.47711 
175 1 175 0.239802 0.760018 0 2.10918 
176 1 176 0.239804 0.800033 0 2.77614 
177 1 177 0.239796 0.840048 0 3.42297 
178 1 178 0.239788 0.880065 0 3.37501 
179 1 179 0.239779 0.920084 0 3.15646 
180 1 180 0.239771 0.960098 0 2.87823 
181 1 181 0.239764 1.00012 0 2.78303 
182 1 182 0.28 0 0 0 
183 1 183 0.279963 0.0399793 0 0.44078 
184 1 184 0.279923 0.0799608 0 0.892235 
185 1 185 0.279877 0.119944 0 1.18983 
186 1 186 0.279831 0.159933 0 1.19155 
187 1 187 0.279791 0.199926 0 1.05956 
188 1 188 0.279755 0.239922 0 0.90333 
189 1 189 0.279737 0.279923 0 0.895285 
190 1 190 0.279731 0.319924 0 1.06858 
191 1 191 0.279738 0.359931 0 1.18982 
192 1 192 0.279748 0.399937 0 1.54426 
193 1 193 0.27976 0.439945 0 1.97067 
194 1 194 0.27977 0.479953 0 2.50321 
195 1 195 0.279778 0.519958 0 2.98961 
196 1 196 0.279781 0.559964 0 3.07132 
197 1 197 0.279783 0.59997 0 2.79869 
198 1 198 0.279782 0.639978 0 2.30907 
199 1 199 0.27978 0.679989 0 1.72996 
200 1 200 0.279781 0.72 0 1.92578 
201 1 201 0.279772 0.760016 0 2.37445 
202 1 202 0.279772 0.80003 0 2.93407 
203 1 203 0.279761 0.84005 0 3.50173 
204 1 204 0.279753 0.880068 0 3.47061 
205 1 205 0.279746 0.920086 0 3.4489 
206 1 206 0.279737 0.960102 0 3.50418 
207 1 207 0.279732 1.00012 0 3.58784 
208 1 208 0.32 0 0 0 
209 1 209 0.319961 0.0399798 0 0.509266 
210 1 210 0.319916 0.0799617 0 0.970943 
211 1 211 0.319864 0.119944 0 1.23041 
212 1 212 0.319813 0.159931 0 1.19366 
213 1 213 0.319765 0.199921 0 0.980593 
214 1 214 0.319726 0.239914 0 0.741549 
215 1 215 0.319703 0.279911 0 0.61438 
216 1 216 0.319693 0.319912 0 0.66396 
217 1 217 0.319697 0.359916 0 0.885509 
218 1 218 0.319705 0.399924 0 1.37608 
219 1 219 0.319721 0.439933 0 1.89765 
220 1 220 0.319731 0.479942 0 2.57488 
221 1 221 0.319742 0.519949 0 3.10011 
222 1 222 0.319748 0.559955 0 3.31798 
223 1 223 0.319748 0.599962 0 3.19168 
224 1 224 0.319747 0.63997 0 2.76843 
225 1 225 0.319743 0.67998 0 2.31864 
226 1 226 0.319742 0.719993 0 2.32482 
227 1 227 0.319735 0.760009 0 2.54198 
228 1 228 0.319733 0.800026 0 3.00637 
229 1 229 0.319723 0.840046 0 3.43122 
230 1 230 0.319718 0.880065 0 3.50717 
231 1 231 0.31971 0.920086 0 3.76288 
232 1 232 0.319704 0.960101 0 4.17802 
233 1 233 0.319701 1.00012 0 4.4897 
234 1 234 0.36 0 0 0 
235 1 235 0.359958 0.0399794 0 0.567538 
236 1 236 0.359907 0.0799614 0 1.05935 
237 1 237 0.359852 0.119945 0 1.2826 
238 1 238 0.359797 0.15993 0 1.23087 
239 1 239 0.359744 0.199917 0 0.991176 
240 1 240 0.359701 0.239906 0 0.632053 
241 1 241 0.359674 0.2799 0 0.290454 
242 1 242 0.359661 0.319899 0 0.187795 
243 1 243 0.359663 0.359901 0 0.491938 
244 1 244 0.359668 0.399909 0 1.08602 
245 1 245 0.359685 0.439919 0 1.63658 
246 1 246 0.359699 0.479927 0 2.36882 
247 1 247 0.359712 0.519937 0 2.92192 
248 1 248 0.359719 0.559944 0 3.21197 
249 1 249 0.359719 0.599952 0 3.18034 
250 1 250 0.359718 0.639962 0 2.83441 
251 1 251 0.359714 0.679973 0 2.50795 
252 1 252 0.35971 0.719987 0 2.45935 
253 1 253 0.359701 0.760003 0 2.56865 
254 1 254 0.359696 0.80002 0 2.92377 
255 1 255 0.359685 0.840042 0 3.29031 
256 1 256 0.359681 0.880059 0 3.61085 
257 1 257 0.359676 0.920081 0 4.13064 
258 1 258 0.359673 0.960097 0 4.8562 
259 1 259 0.359672 1.00011 0 5.39671 
260 1 260 0.4 0 0 0 
261 1 261 0.399952 0.0399784 0 0.676721 
262 1 262 0.399897 0.07996 0 1.18246 
263 1 263 0.399841 0.119944 0 1.34291 
264 1 264 0.399783 0.159927 0 1.30848 
265 1 265 0.399726 0.199912 0 1.07047 
266 1 266 0.399682 0.239898 0 0.593348 
267 1 267 0.39965 0.279889 0 0.087897 
268 1 268 0.399631 0.319885 0 -0.0734009 
269 1 269 0.399629 0.359886 0 0.200402 
270 1 270 0.399631 0.399893 0 0.709211 
271 1 271 0.399647 0.439903 0 1.29839 
272 1 272 0.39966 0.479913 0 1.98239 
273 1 273 0.399676 0.519924 0 2.44663 
274 1 274 0.399684 0.559934 0 2.77674 
275 1 275 0.399681 0.599942 0 2.7972 
276 1 276 0.399677 0.639953 0 2.67764 
277 1 277 0.399669 0.679963 0 2.5093 
278 1 278 0.399665 0.719978 0 2.32989 
279 1 279 0.39966 0.759995 0 2.44027 
280 1 280 0.399653 0.800012 0 2.6936 
281 1 281 0.399648 0.840033 0 2.99667 
282 1 282 0.399646 0.880051 0 3.65799 
283 1 283 0.399639 0.920073 0 4.45488 
284 1 284 0.39964 0.960089 0 5.51309 
285 1 285 0.399641 1.00011 0 6.31521 
286 1 286 0.44 0 0 0 
287 1 287 0.439946 0.0399771 0 0.721598 
288 1 288 0.439888 0.0799588 0 1.22027 
289 1 289 0.43983 0.119942 0 1.37689 
290 1 290 0.439771 0.159924 0 1.40171 
291 1 291 0.439715 0.199906 0 1.17643 
292 1 292 0.439668 0.23989 0 0.674539 
293 1 293 0.439631 0.279877 0 0.0727173 
294 1 294 0.439609 0.31987 0 -0.138248 
295 1 295 0.439601 0.35987 0 0.0975925 
296 1 296 0.4396 0.399874 0 0.545302 
297 1 297 0.439614 0.439882 0 1.23097 
298 1 298 0.439627 0.479893 0 1.80509 
299 1 299 0.439642 0.519905 0 2.04528 
300 1 300 0.439649 0.559917 0 2.31515 
301 1 301 0.439647 0.599929 0 2.31507 
302 1 302 0.439645 0.639941 0 2.33804 
303 1 303 0.439635 0.679955 0 2.35132 
304 1 304 0.439628 0.719971 0 2.12117 
305 1 305 0.439623 0.759988 0 2.22342 
306 1 306 0.439615 0.800005 0 2.44814 
307 1 307 0.43961 0.840025 0 2.77164 
308 1 308 0.439609 0.880042 0 3.7178 
309 1 309 0.439604 0.920063 0 4.73891 
310 1 310 0.439609 0.960079 0 6.05456 
311 1 311 0.439611 1.0001 0 7.04404 
312 1 312 0.48 0 0 0 
313 1 313 0.479938 0.0399762 0 0.700451 
314 1 314 0.479878 0.0799564 0 1.18577 
315 1 315 0.47982 0.119938 0 1.40886 
316 1 316 0.479762 0.159918 0 1.49678 
317 1 317 0.479707 0.199898 0 1.29334 
318 1 318 0.479657 0.23988 0 0.884658 
319 1 319 0.479616 0.279864 0 0.301744 
320 1 320 0.479588 0.319854 0 0.0595059 
321 1 321 0.479573 0.359851 0 0.257397 
322 1 322 0.479567 0.399854 0 0.683198 
323 1 323 0.479576 0.439862 0 1.34376 
324 1 324 0.479586 0.479873 0 1.7065 
325 1 325 0.479599 0.519887 0 1.80229 
326 1 326 0.479604 0.559901 0 1.99014 
327 1 327 0.479602 0.599916 0 1.9651 
328 1 328 0.479596 0.63993 0 2.10128 
329 1 329 0.479585 0.679945 0 2.25431 
330 1 330 0.479578 0.719962 0 2.10202 
331 1 331 0.479575 0.75998 0 2.1582 
332 1 332 0.479571 0.799998 0 2.29189 
333 1 333 0.479572 0.840016 0 2.66265 
334 1 334 0.479572 0.880033 0 3.75876 
335 1 335 0.479567 0.920053 0 4.93685 
336 1 336 0.479575 0.960068 0 6.44556 
337 1 337 0.479577 1.00009 0 7.52161 
338 1 338 0.52 0 0 0 
339 1 339 0.519933 0.0399752 0 0.616751 
340 1 340 0.519871 0.0799528 0 1.08101 
341 1 341 0.519811 0.119932 0 1.3771 
342 1 342 0.519754 0.159911 0 1.50656 
343 1 343 0.5197 0.199889 0 1.37649 
344 1 344 0.519649 0.239869 0 1.12368 
345 1 345 0.519605 0.279851 0 0.65657 
346 1 346 0.51957 0.31984 0 0.472406 
347 1 347 0.519548 0.359834 0 0.661857 
348 1 348 0.519539 0.399835 0 1.10565 
349 1 349 0.519541 0.43984 0 1.73152 
350 1 350 0.519548 0.47985 0 1.94843 
351 1 351 0.519558 0.519864 0 1.94358 
352 1 352 0.519562 0.559881 0 1.93402 
353 1 353 0.519563 0.599899 0 1.84112 
354 1 354 0.519557 0.639917 0 2.04463 
355 1 355 0.519547 0.679936 0 2.25625 
356 1 356 0.519539 0.719955 0 2.17957 
357 1 357 0.519536 0.759975 0 2.16231 
358 1 358 0.519534 0.799992 0 2.24326 
359 1 359 0.519535 0.840009 0 2.67717 
360 1 360 0.519534 0.880025 0 3.79857 
361 1 361 0.519532 0.920043 0 5.06815 
362 1 362 0.51954 0.960059 0 6.6632 
363 1 363 0.519541 1.00008 0 7.71655 
364 1 364 0.56 0 0 0 
365 1 365 0.559927 0.0399732 0 0.39865 
366 1 366 0.559863 0.0799478 0 0.830371 
367 1 367 0.559805 0.119924 0 1.21333 
368 1 368 0.559748 0.159901 0 1.42029 
369 1 369 0.559695 0.199878 0 1.40698 
370 1 370 0.559641 0.239858 0 1.345 
371 1 371 0.559592 0.279839 0 1.11505 
372 1 372 0.559551 0.319828 0 1.08033 
373 1 373 0.55952 0.359821 0 1.24842 
374 1 374 0.559506 0.39982 0 1.63747 
375 1 375 0.5595 0.439824 0 2.17204 
376 1 376 0.559501 0.479834 0 2.30975 
377 1 377 0.559506 0.519849 0 2.20047 
378 1 378 0.559509 0.559867 0 1.97278 
379 1 379 0.55951 0.599887 0 1.93472 
380 1 380 0.559502 0.639905 0 2.1857 
381 1 381 0.559494 0.679927 0 2.39906 
382 1 382 0.559488 0.719945 0 2.46578 
383 1 383 0.559486 0.759966 0 2.36912 
384 1 384 0.55949 0.799985 0 2.39665 
385 1 385 0.559493 0.840002 0 2.87244 
386 1 386 0.559494 0.880018 0 3.94605 
387 1 387 0.559492 0.920035 0 5.23003 
388 1 388 0.559499 0.960052 0 6.71507 
389 1 389 0.5595 1.00007 0 7.61059 
390 1 390 0.6 0 0 0 
391 1 391 0.599926 0.0399708 0 0.261973 
392 1 392 0.59986 0.0799428 0 0.672547 
393 1 393 0.599799 0.119917 0 1.0749 
394 1 394 0.599742 0.159892 0 1.33127 
395 1 395 0.599689 0.199869 0 1.38541 
396 1 396 0.599632 0.239849 0 1.45682 
397 1 397 0.59958 0.279832 0 1.47789 
398 1 398 0.599532 0.319819 0 1.55817 
399 1 399 0.599496 0.359811 0 1.72605 
400 1 400 0.599476 0.399809 0 2.16156 
401 1 401 0.599462 0.439811 0 2.62046 
402 1 402 0.599462 0.479818 0 2.6948 
403 1 403 0.599463 0.519831 0 2.55505 
404 1 404 0.599463 0.559849 0 2.17311 
405 1 405 0.599468 0.59987 0 2.14498 
406 1 406 0.599463 0.639892 0 2.34122 
407 1 407 0.599458 0.679916 0 2.55962 
408 1 408 0.599451 0.719935 0 2.80176 
409 1 409 0.599448 0.759957 0 2.67563 
410 1 410 0.599452 0.799975 0 2.74006 
411 1 411 0.599453 0.839994 0 3.2375 
412 1 412 0.599454 0.880011 0 4.20935 
413 1 413 0.599452 0.920028 0 5.4078 
414 1 414 0.599457 0.960047 0 6.56879 
415 1 415 0.599457 1.00007 0 7.19435 
416 1 416 0.64 0 0 0 
417 1 417 0.639924 0.0399688 0 0.186892 
418 1 418 0.639856 0.0799387 0 0.530094 
419 1 419 0.639795 0.11991 0 0.843724 
420 1 420 0.639737 0.159885 0 1.10947 
421 1 421 0.639681 0.199863 0 1.27742 
422 1 422 0.639622 0.239844 0 1.50973 
423 1 423 0.639566 0.279828 0 1.81273 
424 1 424 0.639512 0.319816 0 1.99831 
425 1 425 0.63947 0.359807 0 2.11544 
426 1 426 0.639444 0.399803 0 2.55488 
427 1 427 0.639423 0.439803 0 2.88332 
428 1 428 0.639416 0.47981 0 2.89745 
429 1 429 0.63941 0.519821 0 2.81539 
430 1 430 0.639411 0.559838 0 2.40931 
431 1 431 0.639415 0.599858 0 2.40994 
432 1 432 0.639407 0.639878 0 2.55347 
433 1 433 0.639406 0.679901 0 2.83369 
434 1 434 0.639401 0.719921 0 3.22558 
435 1 435 0.6394 0.759944 0 3.13066 
436 1 436 0.639406 0.799963 0 3.29812 
437 1 437 0.639406 0.839984 0 3.73678 
438 1 438 0.639409 0.880003 0 4.54906 
439 1 439 0.639406 0.920022 0 5.57642 
440 1 440 0.639408 0.960043 0 6.31651 
441 1 441 0.63941 1.00007 0 6.65782 
442 1 442 0.68 0 0 0 
443 1 443 0.679924 0.0399669 0 0.224654 
444 1 444 0.679854 0.0799361 0 0.502935 
445 1 445 0.67979 0.119907 0 0.667566 
446 1 446 0.67973 0.159883 0 0.903178 
447 1 447 0.679672 0.199861 0 1.15478 
448 1 448 0.679611 0.239842 0 1.45802 
449 1 449 0.679551 0.279828 0 1.95973 
450 1 450 0.679495 0.319815 0 2.29252 
451 1 451 0.679449 0.359805 0 2.43683 
452 1 452 0.679418 0.399799 0 2.81687 
453 1 453 0.679393 0.439796 0 3.00694 
454 1 454 0.679383 0.479799 0 3.07847 
455 1 455 0.679374 0.519807 0 3.09227 
456 1 456 0.679371 0.559821 0 2.66471 
457 1 457 0.679376 0.59984 0 2.67361 
458 1 458 0.679373 0.639861 0 2.80024 
459 1 459 0.679374 0.679885 0 3.13549 
460 1 460 0.679367 0.719906 0 3.62624 
461 1 461 0.679364 0.759929 0 3.6956 
462 1 462 0.679366 0.79995 0 4.03898 
463 1 463 0.679362 0.839973 0 4.40499 
464 1 464 0.679363 0.879996 0 5.03137 
465 1 465 0.679358 0.920016 0 5.73984 
466 1 466 0.679358 0.96004 0 6.0125 
467 1 467 0.679361 1.00006 0 6.12015 
468 1 468 0.72 0 0 0 
469 1 469 0.71992 0.0399655 0 0.331547 
470 1 470 0.719849 0.0799344 0 0.54495 
471 1 471 0.719784 0.119905 0 0.60329 
472 1 472 0.71972 0.15988 0 0.829924 
473 1 473 0.71966 0.19986 0 1.12814 
474 1 474 0.719599 0.239842 0 1.49801 
475 1 475 0.719537 0.279828 0 2.13474 
476 1 476 0.719479 0.319813 0 2.56273 
477 1 477 0.71943 0.359802 0 2.77907 
478 1 478 0.719394 0.399795 0 3.09595 
479 1 479 0.719364 0.439791 0 3.18319 
480 1 480 0.719346 0.479794 0 3.30604 
481 1 481 0.719331 0.519801 0 3.38002 
482 1 482 0.719326 0.559813 0 3.04198 
483 1 483 0.719326 0.59983 0 3.07063 
484 1 484 0.719321 0.639848 0 3.1387 
485 1 485 0.719322 0.67987 0 3.47049 
486 1 486 0.719317 0.719891 0 3.99895 
487 1 487 0.719316 0.759914 0 4.27838 
488 1 488 0.719315 0.799937 0 4.73663 
489 1 489 0.719311 0.839962 0 4.98095 
490 1 490 0.719312 0.879986 0 5.38562 
491 1 491 0.719305 0.920009 0 5.70396 
492 1 492 0.719304 0.960034 0 5.61898 
493 1 493 0.719307 1.00006 0 5.60195 
494 1 494 0.76 0 0 0 
495 1 495 0.75992 0.0399643 0 0.427565 
496 1 496 0.759844 0.0799328 0 0.542234 
497 1 497 0.759776 0.119904 0 0.548753 
498 1 498 0.759711 0.159878 0 0.806467 
499 1 499 0.759646 0.199857 0 1.22377 
500 1 500 0.759585 0.239838 0 1.78871 
501 1 501 0.759523 0.279823 0 2.56652 
502 1 502 0.759467 0.319809 0 3.06514 
503 1 503 0.759417 0.359797 0 3.30447 
504 1 504 0.759377 0.399789 0 3.46949 
505 1 505 0.759345 0.439785 0 3.47133 
506 1 506 0.759323 0.479787 0 3.64004 
507 1 507 0.759305 0.519792 0 3.78118 
508 1 508 0.759295 0.559801 0 3.57988 
509 1 509 0.759291 0.599818 0 3.50688 
510 1 510 0.759289 0.639837 0 3.4208 
511 1 511 0.75929 0.679859 0 3.71838 
512 1 512 0.759285 0.719881 0 4.25756 
513 1 513 0.759281 0.759903 0 4.75521 
514 1 514 0.759273 0.799927 0 5.28694 
515 1 515 0.759264 0.839952 0 5.47624 
516 1 516 0.759261 0.879978 0 5.69739 
517 1 517 0.759254 0.920003 0 5.62978 
518 1 518 0.759251 0.960028 0 5.33895 
519 1 519 0.759252 1.00005 0 5.28866 
520 1 520 0.8 0 0 0 
521 1 521 0.799915 0.0399635 0 0.46322 
522 1 522 0.799838 0.0799303 0 0.589476 
523 1 523 0.799769 0.119899 0 0.67348 
524 1 524 0.7997 0.159872 0 0.994358 
525 1 525 0.799631 0.19985 0 1.55109 
526 1 526 0.79957 0.239831 0 2.26332 
527 1 527 0.799509 0.279815 0 3.07441 
528 1 528 0.799453 0.319801 0 3.67121 
529 1 529 0.799402 0.35979 0 4.00929 
530 1 530 0.799358 0.399783 0 4.03345 
531 1 531 0.799321 0.43978 0 3.94358 
532 1 532 0.799291 0.479784 0 4.09139 
533 1 533 0.799266 0.519791 0 4.24172 
534 1 534 0.799252 0.559802 0 4.16447 
535 1 535 0.799241 0.599817 0 3.98236 
536 1 536 0.799236 0.639834 0 3.77355 
537 1 537 0.799234 0.679854 0 3.97516 
538 1 538 0.799232 0.719874 0 4.42161 
539 1 539 0.799228 0.759896 0 5.07946 
540 1 540 0.799217 0.799919 0 5.62797 
541 1 541 0.79921 0.839944 0 5.77001 
542 1 542 0.799204 0.87997 0 5.77429 
543 1 543 0.799197 0.919996 0 5.37113 
544 1 544 0.799192 0.960022 0 5.02421 
545 1 545 0.799191 1.00005 0 4.98396 
546 1 546 0.84 0 0 0 
547 1 547 0.839916 0.0399638 0 0.489378 
548 1 548 0.839837 0.0799279 0 0.620222 
549 1 549 0.839762 0.119895 0 0.807695 
550 1 550 0.83969 0.159866 0 1.27849 
551 1 551 0.839618 0.199842 0 2.03961 
552 1 552 0.839555 0.239821 0 2.90243 
553 1 553 0.839494 0.279804 0 3.71826 
554 1 554 0.83944 0.31979 0 4.34107 
555 1 555 0.839389 0.359779 0 4.68364 
556 1 556 0.839342 0.399773 0 4.54603 
557 1 557 0.839303 0.439774 0 4.38902 
558 1 558 0.839269 0.479777 0 4.51957 
559 1 559 0.839241 0.519786 0 4.71071 
560 1 560 0.83922 0.559796 0 4.78882 
561 1 561 0.839203 0.599813 0 4.51704 
562 1 562 0.8392 0.639832 0 4.18878 
563 1 563 0.839196 0.679852 0 4.24292 
564 1 564 0.839194 0.719873 0 4.55373 
565 1 565 0.839186 0.759893 0 5.29702 
566 1 566 0.839171 0.799917 0 5.8309 
567 1 567 0.839161 0.839941 0 5.98058 
568 1 568 0.839149 0.879967 0 5.78946 
569 1 569 0.839143 0.919993 0 5.15631 
570 1 570 0.839135 0.96002 0 4.80486 
571 1 571 0.83913 1.00005 0 4.7231 
572 1 572 0.88 0 0 0 
573 1 573 0.879915 0.0399648 0 0.55506 
574 1 574 0.879837 0.0799278 0 0.719625 
575 1 575 0.879759 0.119893 0 1.02693 
576 1 576 0.879682 0.159863 0 1.60929 
577 1 577 0.879605 0.199836 0 2.46028 
578 1 578 0.879539 0.239814 0 3.40096 
579 1 579 0.879478 0.279795 0 4.20943 
580 1 580 0.879424 0.319781 0 4.80155 
581 1 581 0.87937 0.35977 0 5.08494 
582 1 582 0.879319 0.399764 0 4.81873 
583 1 583 0.879274 0.439766 0 4.63023 
584 1 584 0.879231 0.479771 0 4.7386 
585 1 585 0.879196 0.519782 0 4.9702 
586 1 586 0.879169 0.559795 0 5.23122 
587 1 587 0.879146 0.599811 0 5.01624 
588 1 588 0.879137 0.639828 0 4.70171 
589 1 589 0.87913 0.679847 0 4.67275 
590 1 590 0.87913 0.719868 0 4.90628 
591 1 591 0.879124 0.759889 0 5.67747 
592 1 592 0.87911 0.799913 0 6.12241 
593 1 593 0.879101 0.839938 0 6.19266 
594 1 594 0.879086 0.879965 0 5.75939 
595 1 595 0.879083 0.919994 0 5.01991 
596 1 596 0.879072 0.960023 0 4.62291 
597 1 597 0.879065 1.00005 0 4.37255 
598 1 598 0.92 0 0 0 
599 1 599 0.919922 0.0399662 0 0.635189 
600 1 600 0.91984 0.07993 0 0.907333 
601 1 601 0.919755 0.119895 0 1.29377 
602 1 602 0.919675 0.159863 0 1.88815 
603 1 603 0.919595 0.199834 0 2.75079 
604 1 604 0.919525 0.239811 0 3.66311 
605 1 605 0.919462 0.279789 0 4.34908 
606 1 606 0.919407 0.319773 0 4.82088 
607 1 607 0.919351 0.359762 0 5.05521 
608 1 608 0.919297 0.399755 0 4.74879 
609 1 609 0.919248 0.439755 0 4.55373 
610 1 610 0.919203 0.479758 0 4.71233 
611 1 611 0.919163 0.519769 0 5.07112 
612 1 612 0.91913 0.559781 0 5.53004 
613 1 613 0.9191 0.599799 0 5.48268 
614 1 614 0.919091 0.639818 0 5.27781 
615 1 615 0.919083 0.67984 0 5.23552 
616 1 616 0.91908 0.719864 0 5.41064 
617 1 617 0.919071 0.759887 0 6.06848 
618 1 618 0.919056 0.799913 0 6.37986 
619 1 619 0.919044 0.83994 0 6.38841 
620 1 620 0.919028 0.87997 0 5.76626 
621 1 621 0.919024 0.920001 0 4.993 
622 1 622 0.91901 0.960032 0 4.44316 
623 1 623 0.919001 1.00006 0 3.92604 
624 1 624 0.96 0 0 0 
625 1 625 0.959923 0.0399684 0 0.723818 
626 1 626 0.959843 0.0799326 0 1.07307 
627 1 627 0.959755 0.119898 0 1.44454 
628 1 628 0.959669 0.159867 0 1.9844 
629 1 629 0.959585 0.199836 0 2.78458 
630 1 630 0.959512 0.23981 0 3.59641 
631 1 631 0.959446 0.279787 0 4.17576 
632 1 632 0.959387 0.319769 0 4.51598 
633 1 633 0.959328 0.359755 0 4.66275 
634 1 634 0.95927 0.399746 0 4.35063 
635 1 635 0.959213 0.439745 0 4.16344 
636 1 636 0.959158 0.479747 0 4.37619 
637 1 637 0.95911 0.519757 0 4.83367 
638 1 638 0.959072 0.55977 0 5.50035 
639 1 639 0.959036 0.599787 0 5.80318 
640 1 640 0.959018 0.639806 0 5.83535 
641 1 641 0.959005 0.679827 0 5.86934 
642 1 642 0.959004 0.719852 0 6.04941 
643 1 643 0.958997 0.75988 0 6.54863 
644 1 644 0.958986 0.799909 0 6.72441 
645 1 645 0.958975 0.839941 0 6.64687 
646 1 646 0.958959 0.879975 0 5.88036 
647 1 647 0.958956 0.920011 0 5.08447 
648 1 648 0.958942 0.960046 0 4.27773 
649 1 649 0.958936 1.00008 0 3.46842 
650 1 650 1 0 0 0 
651 1 651 0.999929 0.0399691 0 0.703589 
652 1 652 0.999846 0.0799353 0 1.09991 
653 1 653 0.999752 0.119902 0 1.48175 
654 1 654 0.999664 0.15987 0 1.97913 
655 1 655 0.999578 0.199839 0 2.64045 
656 1 656 0.999501 0.23981 0 3.28951 
657 1 657 0.999431 0.279784 0 3.78341 
658 1 658 0.99937 0.319764 0 3.99601 
659 1 659 0.999308 0.359748 0 4.0827 
660 1 660 0.999246 0.399736 0 3.87888 
661 1 661 0.999184 0.439731 0 3.77033 
662 1 662 0.999128 0.479731 0 4.0415 
663 1 663 0.999075 0.519738 0 4.53948 
664 1 664 0.999029 0.55975 0 5.30777 
665 1 665 0.998988 0.599768 0 5.92748 
666 1 666 0.998967 0.63979 0 6.22835 
667 1 667 0.998951 0.679815 0 6.40517 
668 1 668 0.998942 0.719845 0 6.5792 
669 1 669 0.998931 0.759877 0 6.85719 
670 1 670 0.99892 0.79991 0 6.85593 
671 1 671 0.998907 0.839946 0 6.61674 
672 1 672 0.998891 0.879983 0 5.79001 
673 1 673 0.998887 0.920022 0 5.05242 
674 1 674 0.998874 0.960061 0 3.99894 
675 1 675 0.998872 1.00009 0 2.94978 
676 1 676 1.04 0 0 0 
677 1 677 1.03993 0.0399679 0 0.601598 
678 1 678 1.03984 0.0799346 0 1.04171 
679 1 679 1.03975 0.119901 0 1.38466 
680 1 680 1.03966 0.159869 0 1.76492 
681 1 681 1.03957 0.199836 0 2.31404 
682 1 682 1.03949 0.239806 0 2.88353 
683 1 683 1.03942 0.279778 0 3.36401 
684 1 684 1.03935 0.319755 0 3.52215 
685 1 685 1.03928 0.359738 0 3.57392 
686 1 686 1.03922 0.399725 0 3.48008 
687 1 687 1.03915 0.439719 0 3.4612 
688 1 688 1.03908 0.479719 0 3.75896 
689 1 689 1.03902 0.519727 0 4.23853 
690 1 690 1.03897 0.55974 0 5.02781 
691 1 691 1.03892 0.599757 0 5.86582 
692 1 692 1.03889 0.639778 0 6.39133 
693 1 693 1.03886 0.679804 0 6.71799 
694 1 694 1.03885 0.719836 0 6.86436 
695 1 695 1.03884 0.759872 0 6.92442 
696 1 696 1.03884 0.799909 0 6.76536 
697 1 697 1.03883 0.839949 0 6.41444 
698 1 698 1.03881 0.879989 0 5.69223 
699 1 699 1.03881 0.920031 0 5.05452 
700 1 700 1.0388 0.960071 0 3.79662 
701 1 701 1.03881 1.00011 0 2.61256 
702 1 702 1.08 0 0 0 
703 1 703 1.07993 0.0399643 0 0.257464 
704 1 704 1.07984 0.0799295 0 0.685994 
705 1 705 1.07974 0.119896 0 1.10784 
706 1 706 1.07965 0.159862 0 1.48721 
707 1 707 1.07956 0.199828 0 2.00215 
708 1 708 1.07948 0.239795 0 2.57334 
709 1 709 1.0794 0.279766 0 3.09954 
710 1 710 1.07933 0.319743 0 3.27411 
711 1 711 1.07926 0.359725 0 3.36365 
712 1 712 1.07919 0.399712 0 3.4254 
713 1 713 1.07912 0.439706 0 3.47797 
714 1 714 1.07905 0.479706 0 3.68141 
715 1 715 1.07898 0.519713 0 4.04036 
716 1 716 1.07892 0.559726 0 4.77912 
717 1 717 1.07887 0.599745 0 5.72663 
718 1 718 1.07883 0.63977 0 6.41231 
719 1 719 1.0788 0.6798 0 6.86488 
720 1 720 1.07878 0.719834 0 6.96591 
721 1 721 1.07877 0.759872 0 6.80596 
722 1 722 1.07876 0.799912 0 6.45977 
723 1 723 1.07875 0.839953 0 6.02406 
724 1 724 1.07874 0.879993 0 5.44024 
725 1 725 1.07873 0.920034 0 4.83845 
726 1 726 1.07873 0.960074 0 3.53653 
727 1 727 1.07874 1.00011 0 2.42078 
728 1 728 1.12 0 0 0 
729 1 729 1.11992 0.0399595 0 -0.0372479 
730 1 730 1.11984 0.0799223 0 0.343012 
731 1 731 1.11974 0.119886 0 0.831185 
732 1 732 1.11965 0.15985 0 1.28146 
733 1 733 1.11956 0.199816 0 1.83391 
734 1 734 1.11947 0.239782 0 2.42499 
735 1 735 1.11938 0.279754 0 2.97762 
736 1 736 1.11931 0.319731 0 3.18283 
737 1 737 1.11923 0.359714 0 3.31002 
738 1 738 1.11915 0.399703 0 3.48212 
739 1 739 1.11907 0.4397 0 3.63323 
740 1 740 1.119 0.479703 0 3.78736 
741 1 741 1.11892 0.519712 0 3.98368 
742 1 742 1.11886 0.559728 0 4.55125 
743 1 743 1.1188 0.599747 0 5.49453 
744 1 744 1.11875 0.63977 0 6.30785 
745 1 745 1.11871 0.679798 0 6.82544 
746 1 746 1.11869 0.719831 0 6.82013 
747 1 747 1.11867 0.759869 0 6.46687 
748 1 748 1.11866 0.799909 0 5.9796 
749 1 749 1.11866 0.839949 0 5.54206 
750 1 750 1.11865 0.879989 0 5.1395 
751 1 751 1.11865 0.920029 0 4.61389 
752 1 752 1.11865 0.960069 0 3.47373 
753 1 753 1.11866 1.00011 0 2.57202 
754 1 754 1.16 0 0 0 
755 1 755 1.15992 0.0399543 0 -0.306395 
756 1 756 1.15983 0.0799146 0 0.0185506 
757 1 757 1.15973 0.119876 0 0.566342 
758 1 758 1.15964 0.159838 0 1.07815 
759 1 759 1.15955 0.199804 0 1.68814 
760 1 760 1.15946 0.239772 0 2.38311 
761 1 761 1.15937 0.279746 0 3.02997 
762 1 762 1.15928 0.319723 0 3.29415 
763 1 763 1.1592 0.359709 0 3.42859 
764 1 764 1.15912 0.399701 0 3.61924 
765 1 765 1.15904 0.439699 0 3.80474 
766 1 766 1.15896 0.479703 0 3.88168 
767 1 767 1.15888 0.519712 0 3.95851 
768 1 768 1.15881 0.559728 0 4.3824 
769 1 769 1.15874 0.599749 0 5.22579 
770 1 770 1.15869 0.639774 0 6.11309 
771 1 771 1.15865 0.679803 0 6.7272 
772 1 772 1.15861 0.719835 0 6.70709 
773 1 773 1.1586 0.759869 0 6.26341 
774 1 774 1.15858 0.799906 0 5.66551 
775 1 775 1.15857 0.839943 0 5.21261 
776 1 776 1.15857 0.879981 0 4.9155 
777 1 777 1.15856 0.920018 0 4.45975 
778 1 778 1.15857 0.960057 0 3.53084 
779 1 779 1.15858 1.0001 0 2.83757 
780 1 780 1.2 0 0 0 
781 1 781 1.19991 0.0399514 0 -0.497695 
782 1 782 1.19982 0.0799091 0 -0.249344 
783 1 783 1.19973 0.119869 0 0.362392 
784 1 784 1.19964 0.159832 0 1.02981 
785 1 785 1.19954 0.199799 0 1.76222 
786 1 786 1.19945 0.239769 0 2.50247 
787 1 787 1.19935 0.279746 0 3.10269 
788 1 788 1.19925 0.319726 0 3.34105 
789 1 789 1.19916 0.359715 0 3.47689 
790 1 790 1.19907 0.39971 0 3.6899 
791 1 791 1.19898 0.43971 0 3.90422 
792 1 792 1.1989 0.479717 0 3.88101 
793 1 793 1.19881 0.519728 0 3.86762 
794 1 794 1.19874 0.559743 0 4.20625 
795 1 795 1.19867 0.599762 0 4.96326 
796 1 796 1.19861 0.639782 0 5.90062 
797 1 797 1.19855 0.679805 0 6.52141 
798 1 798 1.19852 0.719832 0 6.47243 