ITEM: TIMESTEP
0
ITEM: NUMBER OF ATOMS
7127
ITEM: BOX BOUNDS sm sm sm
0 4
0 2
0 0
ITEM: ATOMS id type tag x y z vx 
0 1 0 0 0 0 0 
1 1 1 0 0.04 0 0 
2 1 2 0 0.08 0 0 
3 1 3 0 0.12 0 0 
4 1 4 0 0.16 0 0 
5 1 5 0 0.2 0 0 
6 1 6 0 0.24 0 0 
7 1 7 0 0.28 0 0 
8 1 8 0 0.32 0 0 
9 1 9 0 0.36 0 0 
10 1 10 0 0.4 0 0 
11 1 11 0 0.44 0 0 
12 1 12 0 0.48 0 0 
13 1 13 0 0.52 0 0 
14 1 14 0 0.56 0 0 
15 1 15 0 0.6 0 0 
16 1 16 0 0.64 0 0 
17 1 17 0 0.68 0 0 
18 1 18 0 0.72 0 0 
19 1 19 0 0.76 0 0 
20 1 20 0 0.8 0 0 
21 1 21 0 0.84 0 0 
22 1 22 0 0.88 0 0 
23 1 23 0 0.92 0 0 
24 1 24 0 0.96 0 0 
25 1 25 0 1 0 0 
26 1 26 0.04 0 0 0 
27 1 27 0.0399857 0.039987 0 0.120899 
28 1 28 0.0399801 0.079982 0 -0.0113448 
29 1 29 0.0399741 0.119979 0 -0.0464775 
30 1 30 0.0399679 0.159978 0 -0.065141 
31 1 31 0.0399672 0.199976 0 -0.0185012 
32 1 32 0.0399639 0.239976 0 -0.0827159 
33 1 33 0.0399643 0.279975 0 -0.282469 
34 1 34 0.0399604 0.319975 0 -0.302456 
35 1 35 0.0399609 0.359977 0 -0.216395 
36 1 36 0.039958 0.39998 0 -0.058629 
37 1 37 0.03996 0.439985 0 0.11403 
38 1 38 0.0399586 0.479991 0 0.194928 
39 1 39 0.0399638 0.519996 0 0.329421 
40 1 40 0.03996 0.56 0 0.420904 
41 1 41 0.0399671 0.600002 0 0.366116 
42 1 42 0.0399641 0.640004 0 0.472471 
43 1 43 0.0399677 0.680006 0 0.321426 
44 1 44 0.0399655 0.720008 0 0.20458 
45 1 45 0.0399652 0.76001 0 0.122741 
46 1 46 0.03996 0.80002 0 -0.0896122 
47 1 47 0.039962 0.840027 0 -0.102193 
48 1 48 0.0399586 0.88004 0 0.115738 
49 1 49 0.0399538 0.920051 0 0.269826 
50 1 50 0.0399532 0.960062 0 0.673302 
51 1 51 0.0398905 1.00012 0 1.11956 
52 1 52 0.08 0 0 0 
53 1 53 0.079978 0.0399833 0 0.156083 
54 1 54 0.0799625 0.079971 0 -0.128444 
55 1 55 0.0799492 0.119963 0 -0.170716 
56 1 56 0.0799395 0.159959 0 -0.261267 
57 1 57 0.0799365 0.199957 0 -0.346631 
58 1 58 0.0799302 0.239954 0 -0.51928 
59 1 59 0.07993 0.279954 0 -0.794422 
60 1 60 0.0799237 0.319953 0 -0.675318 
61 1 61 0.0799216 0.359958 0 -0.404268 
62 1 62 0.0799164 0.399962 0 -0.0636105 
63 1 63 0.0799164 0.439973 0 0.215891 
64 1 64 0.0799158 0.479981 0 0.345913 
65 1 65 0.079922 0.519993 0 0.436068 
66 1 66 0.0799216 0.56 0 0.54584 
67 1 67 0.0799274 0.600009 0 0.530957 
68 1 68 0.079929 0.640012 0 0.811623 
69 1 69 0.0799267 0.680019 0 0.738074 
70 1 70 0.079931 0.720021 0 0.556899 
71 1 71 0.0799194 0.76003 0 0.326871 
72 1 72 0.0799175 0.800039 0 -0.150423 
73 1 73 0.0799104 0.840059 0 -0.179197 
74 1 74 0.0799082 0.880075 0 0.0943245 
75 1 75 0.079904 0.920098 0 0.519837 
76 1 76 0.0798791 0.960131 0 1.35982 
77 1 77 0.0798397 1.00015 0 2.00505 
78 1 78 0.12 0 0 0 
79 1 79 0.119971 0.0399797 0 0.0854175 
80 1 80 0.119947 0.0799634 0 -0.221735 
81 1 81 0.119928 0.119953 0 -0.378859 
82 1 82 0.119916 0.159946 0 -0.684976 
83 1 83 0.119909 0.199941 0 -0.90241 
84 1 84 0.1199 0.239937 0 -1.16388 
85 1 85 0.119898 0.279937 0 -1.48697 
86 1 86 0.119889 0.319937 0 -1.26069 
87 1 87 0.119884 0.359943 0 -0.81126 
88 1 88 0.119877 0.399949 0 -0.249672 
89 1 89 0.119875 0.439962 0 0.125769 
90 1 90 0.119875 0.479973 0 0.34587 
91 1 91 0.119879 0.519989 0 0.396919 
92 1 92 0.119882 0.560001 0 0.499471 
93 1 93 0.119886 0.600013 0 0.675679 
94 1 94 0.11989 0.640025 0 1.05321 
95 1 95 0.11989 0.680033 0 1.16574 
96 1 96 0.119889 0.720044 0 0.964424 
97 1 97 0.119878 0.760053 0 0.564944 
98 1 98 0.119866 0.800069 0 0.0476688 
99 1 99 0.119857 0.840085 0 -0.0268926 
100 1 100 0.119851 0.88011 0 0.20645 
101 1 101 0.119842 0.920137 0 0.772946 
102 1 102 0.119823 0.96016 0 1.82232 
103 1 103 0.119791 1.00019 0 2.52248 
104 1 104 0.16 0 0 0 
105 1 105 0.159964 0.0399756 0 0.00310281 
106 1 106 0.159934 0.0799577 0 -0.327615 
107 1 107 0.15991 0.119947 0 -0.745869 
108 1 108 0.159893 0.159937 0 -1.23308 
109 1 109 0.159882 0.199931 0 -1.51478 
110 1 110 0.159872 0.239927 0 -1.88537 
111 1 111 0.159868 0.279926 0 -2.18413 
112 1 112 0.159857 0.319926 0 -1.86302 
113 1 113 0.159848 0.359932 0 -1.23842 
114 1 114 0.159838 0.399941 0 -0.45186 
115 1 115 0.159833 0.439954 0 0.000724938 
116 1 116 0.159832 0.47997 0 0.251454 
117 1 117 0.159835 0.519987 0 0.307373 
118 1 118 0.159838 0.560005 0 0.39939 
119 1 119 0.159843 0.60002 0 0.77096 
120 1 120 0.159843 0.640036 0 1.25017 
121 1 121 0.159845 0.680049 0 1.49779 
122 1 122 0.159839 0.720063 0 1.35151 
123 1 123 0.159828 0.76008 0 0.772059 
124 1 124 0.159814 0.800094 0 0.309191 
125 1 125 0.1598 0.840117 0 0.17578 
126 1 126 0.159792 0.880136 0 0.392334 
127 1 127 0.159783 0.920164 0 1.06878 
128 1 128 0.159769 0.960189 0 2.09679 
129 1 129 0.159742 1.00021 0 2.80309 
130 1 130 0.2 0 0 0 
131 1 131 0.199957 0.0399746 0 -0.0879317 
132 1 132 0.19992 0.0799568 0 -0.520327 
133 1 133 0.199891 0.119944 0 -1.1513 
134 1 134 0.199871 0.159932 0 -1.66211 
135 1 135 0.199858 0.199927 0 -2.02229 
136 1 136 0.199847 0.239922 0 -2.49971 
137 1 137 0.199839 0.27992 0 -2.65581 
138 1 138 0.199826 0.319922 0 -2.22821 
139 1 139 0.199815 0.359928 0 -1.46359 
140 1 140 0.199802 0.399937 0 -0.51995 
141 1 141 0.199795 0.43995 0 0.020894 
142 1 142 0.199791 0.479967 0 0.3138 
143 1 143 0.199792 0.519986 0 0.352974 
144 1 144 0.199795 0.560006 0 0.423085 
145 1 145 0.199799 0.600027 0 0.795015 
146 1 146 0.1998 0.640045 0 1.29921 
147 1 147 0.199801 0.680065 0 1.68137 
148 1 148 0.199793 0.720082 0 1.62657 
149 1 149 0.19978 0.760102 0 1.07614 
150 1 150 0.199763 0.800119 0 0.757657 
151 1 151 0.199743 0.840139 0 0.533507 
152 1 152 0.199737 0.88016 0 0.764243 
153 1 153 0.199725 0.920182 0 1.525 
154 1 154 0.199716 0.960207 0 2.3311 
155 1 155 0.199703 1.00023 0 2.91817 
156 1 156 0.24 0 0 0 
157 1 157 0.239949 0.0399764 0 -0.136985 
158 1 158 0.239906 0.0799576 0 -0.555727 
159 1 159 0.239874 0.119944 0 -1.26287 
160 1 160 0.239851 0.159932 0 -1.82991 
161 1 161 0.239834 0.199926 0 -2.33477 
162 1 162 0.239821 0.23992 0 -2.80666 
163 1 163 0.23981 0.279919 0 -2.76021 
164 1 164 0.239794 0.319922 0 -2.26795 
165 1 165 0.239782 0.359928 0 -1.44564 
166 1 166 0.239765 0.399937 0 -0.425732 
167 1 167 0.239757 0.43995 0 0.21625 
168 1 168 0.239749 0.479966 0 0.584442 
169 1 169 0.239747 0.519988 0 0.569532 
170 1 170 0.239749 0.560008 0 0.579388 
171 1 171 0.23975 0.600034 0 0.928989 
172 1 172 0.239751 0.640055 0 1.37412 
173 1 173 0.239751 0.680076 0 1.8362 
174 1 174 0.239739 0.720099 0 1.85011 
175 1 175 0.239728 0.760117 0 1.35189 
176 1 176 0.239711 0.800136 0 1.27275 
177 1 177 0.23969 0.840154 0 1.07753 
178 1 178 0.239685 0.88017 0 1.33106 
179 1 179 0.23967 0.920194 0 2.09611 
180 1 180 0.239665 0.960214 0 2.59418 
181 1 181 0.239657 1.00024 0 2.99374 
182 1 182 0.28 0 0 0 
183 1 183 0.279944 0.0399781 0 -0.209606 
184 1 184 0.279895 0.0799582 0 -0.58721 
185 1 185 0.279857 0.119945 0 -1.25488 
186 1 186 0.27983 0.159934 0 -1.80804 
187 1 187 0.279811 0.199928 0 -2.33863 
188 1 188 0.279796 0.239923 0 -2.66827 
189 1 189 0.279783 0.279922 0 -2.51053 
190 1 190 0.279764 0.319925 0 -2.02722 
191 1 191 0.27975 0.35993 0 -1.18468 
192 1 192 0.27973 0.399939 0 -0.144554 
193 1 193 0.279719 0.439951 0 0.588942 
194 1 194 0.279708 0.479966 0 0.978243 
195 1 195 0.279703 0.519988 0 0.997416 
196 1 196 0.279702 0.56001 0 0.963736 
197 1 197 0.279705 0.600036 0 1.15473 
198 1 198 0.279707 0.640062 0 1.48568 
199 1 199 0.279707 0.680086 0 1.87016 
200 1 200 0.279696 0.720109 0 1.9717 
201 1 201 0.279683 0.76013 0 1.61874 
202 1 202 0.279666 0.800145 0 1.65818 
203 1 203 0.279644 0.840163 0 1.63629 
204 1 204 0.279635 0.880176 0 2.02722 
205 1 205 0.279619 0.920196 0 2.69304 
206 1 206 0.279615 0.960219 0 2.878 
207 1 207 0.279611 1.00024 0 3.09932 
208 1 208 0.32 0 0 0 
209 1 209 0.319938 0.039979 0 -0.293856 
210 1 210 0.319884 0.0799591 0 -0.619715 
211 1 211 0.319842 0.119945 0 -1.12605 
212 1 212 0.31981 0.159935 0 -1.60347 
213 1 213 0.319788 0.199929 0 -2.11703 
214 1 214 0.319771 0.239926 0 -2.31007 
215 1 215 0.319754 0.279927 0 -2.13525 
216 1 216 0.319733 0.31993 0 -1.63897 
217 1 217 0.319715 0.359934 0 -0.830291 
218 1 218 0.319694 0.399943 0 0.0642727 
219 1 219 0.319679 0.439954 0 0.8587 
220 1 220 0.319664 0.47997 0 1.27614 
221 1 221 0.319656 0.51999 0 1.4118 
222 1 222 0.319652 0.560013 0 1.48204 
223 1 223 0.319654 0.60004 0 1.48856 
224 1 224 0.319656 0.640064 0 1.68621 
225 1 225 0.319654 0.68009 0 1.92705 
226 1 226 0.319646 0.720112 0 2.03187 
227 1 227 0.319635 0.760133 0 1.96855 
228 1 228 0.319619 0.80015 0 2.14105 
229 1 229 0.319601 0.840164 0 2.25093 
230 1 230 0.319588 0.88018 0 2.73052 
231 1 231 0.319568 0.920199 0 3.21729 
232 1 232 0.319563 0.960219 0 3.18413 
233 1 233 0.319558 1.00024 0 3.29889 
234 1 234 0.36 0 0 0 
235 1 235 0.359936 0.0399786 0 -0.31178 
236 1 236 0.359877 0.0799605 0 -0.567395 
237 1 237 0.359828 0.119946 0 -0.887483 
238 1 238 0.359791 0.159936 0 -1.32309 
239 1 239 0.359767 0.19993 0 -1.84252 
240 1 240 0.359746 0.239929 0 -1.94881 
241 1 241 0.359726 0.27993 0 -1.78675 
242 1 242 0.359703 0.319933 0 -1.27444 
243 1 243 0.359683 0.35994 0 -0.576083 
244 1 244 0.359659 0.399948 0 0.111504 
245 1 245 0.35964 0.439957 0 0.976466 
246 1 246 0.359621 0.479972 0 1.50939 
247 1 247 0.35961 0.519991 0 1.7635 
248 1 248 0.359605 0.560013 0 1.91294 
249 1 249 0.359609 0.60004 0 1.88407 
250 1 250 0.359613 0.640064 0 2.02214 
251 1 251 0.359612 0.680092 0 2.09988 
252 1 252 0.359606 0.720114 0 2.17549 
253 1 253 0.359595 0.760135 0 2.24724 
254 1 254 0.35958 0.800153 0 2.51908 
255 1 255 0.35956 0.840168 0 2.83701 
256 1 256 0.359542 0.880183 0 3.27155 
257 1 257 0.35952 0.920203 0 3.54338 
258 1 258 0.35951 0.960224 0 3.46646 
259 1 259 0.359502 1.00025 0 3.54845 
260 1 260 0.4 0 0 0 
261 1 261 0.399931 0.0399786 0 -0.328651 
262 1 262 0.399869 0.0799604 0 -0.561218 
263 1 263 0.399816 0.119945 0 -0.7459 
264 1 264 0.399774 0.159936 0 -1.1237 
265 1 265 0.399745 0.19993 0 -1.58596 
266 1 266 0.39972 0.239929 0 -1.59224 
267 1 267 0.399698 0.279931 0 -1.43722 
268 1 268 0.399673 0.319935 0 -1.04778 
269 1 269 0.399649 0.359942 0 -0.579828 
270 1 270 0.399623 0.399951 0 -0.0487075 
271 1 271 0.3996 0.439962 0 0.803676 
272 1 272 0.399577 0.479977 0 1.43516 
273 1 273 0.399564 0.519995 0 1.96823 
274 1 274 0.399555 0.560016 0 2.29328 
275 1 275 0.399558 0.60004 0 2.31754 
276 1 276 0.39956 0.640064 0 2.44808 
277 1 277 0.39956 0.680091 0 2.36978 
278 1 278 0.399558 0.720113 0 2.48393 
279 1 279 0.399547 0.760135 0 2.65393 
280 1 280 0.399536 0.800154 0 2.87965 
281 1 281 0.399518 0.840171 0 3.3515 
282 1 282 0.399495 0.880191 0 3.67016 
283 1 283 0.399472 0.920209 0 3.71605 
284 1 284 0.399456 0.960231 0 3.70257 
285 1 285 0.399442 1.00026 0 3.79319 
286 1 286 0.44 0 0 0 
287 1 287 0.43993 0.0399786 0 -0.31936 
288 1 288 0.439863 0.0799599 0 -0.519346 
289 1 289 0.439805 0.119944 0 -0.652595 
290 1 290 0.439758 0.159934 0 -0.989189 
291 1 291 0.439725 0.199927 0 -1.40995 
292 1 292 0.439696 0.239927 0 -1.40792 
293 1 293 0.439672 0.279929 0 -1.26344 
294 1 294 0.439645 0.319935 0 -0.987199 
295 1 295 0.439618 0.359942 0 -0.672244 
296 1 296 0.43959 0.399951 0 -0.208253 
297 1 297 0.439562 0.439964 0 0.537368 
298 1 298 0.439538 0.479979 0 1.22905 
299 1 299 0.439523 0.519996 0 2.09411 
300 1 300 0.439513 0.560016 0 2.67817 
301 1 301 0.439517 0.60004 0 2.81693 
302 1 302 0.439522 0.640063 0 2.89375 
303 1 303 0.439524 0.680091 0 2.68461 
304 1 304 0.439523 0.720114 0 2.84249 
305 1 305 0.43951 0.760138 0 3.12513 
306 1 306 0.439498 0.800159 0 3.34129 
307 1 307 0.439476 0.840179 0 3.85129 
308 1 308 0.439449 0.880201 0 4.02653 
309 1 309 0.439425 0.920221 0 3.91268 
310 1 310 0.439403 0.960245 0 3.95826 
311 1 311 0.439382 1.00027 0 4.04668 
312 1 312 0.48 0 0 0 
313 1 313 0.479927 0.0399777 0 -0.240819 
314 1 314 0.479856 0.0799585 0 -0.362719 
315 1 315 0.479795 0.119941 0 -0.50568 
316 1 316 0.479743 0.15993 0 -0.768051 
317 1 317 0.479705 0.199922 0 -1.09388 
318 1 318 0.479671 0.239921 0 -1.17657 
319 1 319 0.479644 0.279924 0 -1.10606 
320 1 320 0.479614 0.31993 0 -0.927787 
321 1 321 0.479584 0.359939 0 -0.75673 
322 1 322 0.479555 0.399951 0 -0.438572 
323 1 323 0.479524 0.439965 0 0.16869 
324 1 324 0.479498 0.479982 0 1.03945 
325 1 325 0.479481 0.519999 0 2.17631 
326 1 326 0.479471 0.560019 0 2.94618 
327 1 327 0.479471 0.600039 0 3.3348 
328 1 328 0.479471 0.640062 0 3.44459 
329 1 329 0.479474 0.680088 0 3.1705 
330 1 330 0.479475 0.720112 0 3.30812 
331 1 331 0.479464 0.760139 0 3.60635 
332 1 332 0.479452 0.800163 0 3.84382 
333 1 333 0.47943 0.840189 0 4.3266 
334 1 334 0.479402 0.880214 0 4.37436 
335 1 335 0.479376 0.920237 0 4.15067 
336 1 336 0.479347 0.960262 0 4.18118 
337 1 337 0.479323 1.00029 0 4.2338 
338 1 338 0.52 0 0 0 
339 1 339 0.519925 0.0399771 0 -0.19352 
340 1 340 0.519851 0.0799578 0 -0.239256 
341 1 341 0.519785 0.11994 0 -0.359578 
342 1 342 0.519729 0.159926 0 -0.496009 
343 1 343 0.519685 0.199917 0 -0.659889 
344 1 344 0.519646 0.239915 0 -0.803704 
345 1 345 0.519617 0.279917 0 -0.791821 
346 1 346 0.519585 0.319923 0 -0.749666 
347 1 347 0.519554 0.359933 0 -0.744452 
348 1 348 0.519522 0.399946 0 -0.506542 
349 1 349 0.519489 0.439961 0 -0.0192138 
350 1 350 0.519465 0.479978 0 0.969279 
351 1 351 0.519448 0.519995 0 2.25199 
352 1 352 0.519437 0.560015 0 3.17352 
353 1 353 0.519437 0.600035 0 3.77339 
354 1 354 0.519439 0.64006 0 3.87028 
355 1 355 0.519442 0.680086 0 3.64999 
356 1 356 0.519439 0.720113 0 3.7569 
357 1 357 0.519427 0.760142 0 4.06118 
358 1 358 0.519409 0.80017 0 4.39707 
359 1 359 0.519383 0.840201 0 4.79013 
360 1 360 0.519354 0.880229 0 4.79081 
361 1 361 0.519327 0.920257 0 4.55168 
362 1 362 0.519295 0.960283 0 4.51454 
363 1 363 0.519269 1.00031 0 4.51977 
364 1 364 0.56 0 0 0 
365 1 365 0.559921 0.0399773 0 -0.0372886 
366 1 366 0.559845 0.0799573 0 0.0151368 
367 1 367 0.559777 0.119938 0 -0.0366956 
368 1 368 0.559714 0.159923 0 -0.0252826 
369 1 369 0.559664 0.199913 0 -0.0526629 
370 1 370 0.559621 0.239908 0 -0.295613 
371 1 371 0.559587 0.279908 0 -0.392511 
372 1 372 0.559553 0.319914 0 -0.492196 
373 1 373 0.55952 0.359924 0 -0.594079 
374 1 374 0.559485 0.399938 0 -0.383666 
375 1 375 0.559453 0.439954 0 -0.0334958 
376 1 376 0.559428 0.479973 0 0.94852 
377 1 377 0.55941 0.519991 0 2.27889 
378 1 378 0.559399 0.560009 0 3.3842 
379 1 379 0.559393 0.60003 0 4.13364 
380 1 380 0.55939 0.640054 0 4.14875 
381 1 381 0.55939 0.68008 0 4.05851 
382 1 382 0.559385 0.72011 0 4.13912 
383 1 383 0.559375 0.760143 0 4.48238 
384 1 384 0.559355 0.800176 0 4.98716 
385 1 385 0.559329 0.840212 0 5.24411 
386 1 386 0.559302 0.880244 0 5.21562 
387 1 387 0.559274 0.920276 0 4.9765 
388 1 388 0.559244 0.960303 0 4.89429 
389 1 389 0.55922 1.00033 0 4.91771 
390 1 390 0.6 0 0 0 
391 1 391 0.599918 0.0399777 0 0.0793826 
392 1 392 0.599839 0.0799573 0 0.218222 
393 1 393 0.599768 0.119938 0 0.300548 
394 1 394 0.599701 0.159922 0 0.465883 
395 1 395 0.599645 0.199909 0 0.558058 
396 1 396 0.599596 0.239902 0 0.307412 
397 1 397 0.599557 0.2799 0 0.10384 
398 1 398 0.599522 0.319904 0 -0.0918246 
399 1 399 0.599486 0.359912 0 -0.178336 
400 1 400 0.59945 0.399925 0 -0.0386529 
401 1 401 0.599419 0.439941 0 0.177268 
402 1 402 0.599395 0.479958 0 1.14492 
403 1 403 0.599376 0.519977 0 2.36646 
404 1 404 0.599367 0.559997 0 3.48172 
405 1 405 0.599358 0.60002 0 4.29957 
406 1 406 0.599355 0.640047 0 4.31148 
407 1 407 0.599352 0.680077 0 4.382 
408 1 408 0.599342 0.720111 0 4.40113 
409 1 409 0.599329 0.760147 0 4.77631 
410 1 410 0.599302 0.800183 0 5.41521 
411 1 411 0.599275 0.840223 0 5.58343 
412 1 412 0.599249 0.880258 0 5.62999 
413 1 413 0.599222 0.920293 0 5.39981 
414 1 414 0.599197 0.96032 0 5.34085 
415 1 415 0.599177 1.00034 0 5.47696 
416 1 416 0.64 0 0 0 
417 1 417 0.639914 0.0399776 0 0.0899251 
418 1 418 0.639834 0.0799561 0 0.303161 
419 1 419 0.63976 0.119936 0 0.602229 
420 1 420 0.639688 0.159918 0 0.885504 
421 1 421 0.639625 0.199902 0 1.04517 
422 1 422 0.639572 0.239893 0 0.857587 
423 1 423 0.639526 0.279889 0 0.555199 
424 1 424 0.639487 0.319891 0 0.303596 
425 1 425 0.639448 0.359898 0 0.290127 
426 1 426 0.639409 0.399912 0 0.387511 
427 1 427 0.639377 0.439929 0 0.564916 
428 1 428 0.639352 0.479948 0 1.45235 
429 1 429 0.639332 0.51997 0 2.40785 
430 1 430 0.639321 0.559992 0 3.42886 
431 1 431 0.639305 0.600016 0 4.27985 
432 1 432 0.639296 0.640044 0 4.35182 
433 1 433 0.639289 0.680074 0 4.59403 
434 1 434 0.639276 0.72011 0 4.61336 
435 1 435 0.639264 0.760149 0 5.03281 
436 1 436 0.639237 0.80019 0 5.70269 
437 1 437 0.639215 0.840231 0 5.80965 
438 1 438 0.639192 0.880268 0 5.96999 
439 1 439 0.639169 0.920304 0 5.76111 
440 1 440 0.639151 0.960331 0 5.80698 
441 1 441 0.639136 1.00035 0 6.10639 
442 1 442 0.68 0 0 0 
443 1 443 0.679915 0.0399768 0 0.0895566 
444 1 444 0.679831 0.0799537 0 0.340385 
445 1 445 0.679753 0.119931 0 0.771327 
446 1 446 0.679677 0.159912 0 1.08351 
447 1 447 0.679608 0.199895 0 1.29601 
448 1 448 0.679548 0.239883 0 1.195 
449 1 449 0.679497 0.279877 0 0.845702 
450 1 450 0.679452 0.319879 0 0.646649 
451 1 451 0.679411 0.359886 0 0.753236 
452 1 452 0.67937 0.399899 0 0.915436 
453 1 453 0.679337 0.439916 0 1.16682 
454 1 454 0.679312 0.479935 0 1.86815 
455 1 455 0.67929 0.519959 0 2.52342 
456 1 456 0.679277 0.559983 0 3.41847 
457 1 457 0.679258 0.600011 0 4.19772 
458 1 458 0.67925 0.640042 0 4.31621 
459 1 459 0.679238 0.680076 0 4.67364 
460 1 460 0.679221 0.720115 0 4.73618 
461 1 461 0.679206 0.760155 0 5.20135 
462 1 462 0.679178 0.800197 0 5.84306 
463 1 463 0.679157 0.840238 0 5.94642 
464 1 464 0.679136 0.880275 0 6.17878 
465 1 465 0.679118 0.920311 0 6.01588 
466 1 466 0.679108 0.960337 0 6.23011 
467 1 467 0.679098 1.00036 0 6.66687 
468 1 468 0.72 0 0 0 
469 1 469 0.719914 0.0399757 0 0.0357957 
470 1 470 0.71983 0.0799498 0 0.30206 
471 1 471 0.719748 0.119925 0 0.789985 
472 1 472 0.719668 0.159905 0 1.10313 
473 1 473 0.719592 0.199886 0 1.35207 
474 1 474 0.719526 0.239874 0 1.3258 
475 1 475 0.719465 0.279867 0 1.01649 
476 1 476 0.719415 0.31987 0 0.950289 
477 1 477 0.719368 0.359878 0 1.16796 
478 1 478 0.719325 0.39989 0 1.39914 
479 1 479 0.719289 0.439908 0 1.72081 
480 1 480 0.719258 0.479929 0 2.17692 
481 1 481 0.719233 0.519955 0 2.55156 
482 1 482 0.719217 0.559982 0 3.28475 
483 1 483 0.719193 0.600012 0 3.99677 
484 1 484 0.719178 0.640043 0 4.3083 
485 1 485 0.719161 0.680078 0 4.81795 
486 1 486 0.719144 0.720117 0 4.96995 
487 1 487 0.719131 0.760159 0 5.38361 
488 1 488 0.719109 0.800202 0 5.86011 
489 1 489 0.719095 0.840242 0 5.99221 
490 1 490 0.719078 0.880279 0 6.26269 
491 1 491 0.719066 0.920313 0 6.20998 
492 1 492 0.719062 0.960339 0 6.57957 
493 1 493 0.719057 1.00036 0 7.03825 
494 1 494 0.76 0 0 0 
495 1 495 0.759918 0.0399741 0 0.0850532 
496 1 496 0.759831 0.0799466 0 0.365756 
497 1 497 0.759743 0.119922 0 0.858583 
498 1 498 0.759659 0.159901 0 1.12929 
499 1 499 0.759579 0.199882 0 1.29018 
500 1 500 0.759505 0.23987 0 1.24649 
501 1 501 0.759436 0.279864 0 0.978445 
502 1 502 0.75938 0.319865 0 1.02453 
503 1 503 0.759328 0.359872 0 1.36773 
504 1 504 0.759283 0.399884 0 1.76734 
505 1 505 0.759244 0.4399 0 2.24633 
506 1 506 0.759212 0.479919 0 2.53113 
507 1 507 0.759184 0.519943 0 2.67947 
508 1 508 0.759162 0.559971 0 3.1624 
509 1 509 0.759139 0.600004 0 3.77976 
510 1 510 0.759123 0.640038 0 4.34149 
511 1 511 0.759103 0.680077 0 4.9564 
512 1 512 0.759083 0.720118 0 5.2141 
513 1 513 0.759066 0.760161 0 5.53645 
514 1 514 0.759048 0.800203 0 5.81812 
515 1 515 0.759036 0.840243 0 6.02515 
516 1 516 0.759022 0.88028 0 6.28487 
517 1 517 0.759016 0.920313 0 6.36355 
518 1 518 0.759016 0.960339 0 6.78772 
519 1 519 0.759014 1.00036 0 7.1167 
520 1 520 0.8 0 0 0 
521 1 521 0.799917 0.039973 0 0.236617 
522 1 522 0.799831 0.0799466 0 0.545972 
523 1 523 0.79974 0.119922 0 0.948032 
524 1 524 0.799652 0.159902 0 1.10845 
525 1 525 0.799565 0.199885 0 1.16047 
526 1 526 0.799484 0.239874 0 1.1599 
527 1 527 0.799408 0.279867 0 1.03464 
528 1 528 0.799344 0.319867 0 1.1414 
529 1 529 0.799286 0.359872 0 1.4915 
530 1 530 0.799239 0.39988 0 1.99631 
531 1 531 0.799195 0.439894 0 2.54955 
532 1 532 0.799157 0.479911 0 2.65556 
533 1 533 0.799123 0.519935 0 2.69367 
534 1 534 0.799096 0.559963 0 3.04392 
535 1 535 0.799069 0.599995 0 3.67662 
536 1 536 0.799046 0.640029 0 4.52228 
537 1 537 0.799021 0.680069 0 5.21209 
538 1 538 0.799002 0.720111 0 5.60662 
539 1 539 0.798986 0.760156 0 5.84991 
540 1 540 0.798975 0.800199 0 5.9343 
541 1 541 0.79897 0.84024 0 6.14656 
542 1 542 0.798961 0.880277 0 6.31883 
543 1 543 0.798962 0.92031 0 6.54655 
544 1 544 0.798965 0.960339 0 6.88912 
545 1 545 0.798967 1.00036 0 6.94735 
546 1 546 0.84 0 0 0 
547 1 547 0.839919 0.0399726 0 0.432709 
548 1 548 0.839829 0.0799481 0 0.842661 
549 1 549 0.839734 0.119926 0 1.1338 
550 1 550 0.839644 0.159908 0 1.1911 
551 1 551 0.839553 0.199893 0 1.13899 
552 1 552 0.839466 0.239882 0 1.07963 
553 1 553 0.839383 0.279874 0 1.03524 
554 1 554 0.839313 0.319872 0 1.19103 
555 1 555 0.839251 0.359874 0 1.57466 
556 1 556 0.839201 0.399877 0 2.2018 
557 1 557 0.839154 0.439885 0 2.81263 
558 1 558 0.839114 0.479896 0 2.83663 
559 1 559 0.839076 0.519915 0 2.85315 
560 1 560 0.839043 0.559941 0 3.08177 
561 1 561 0.839015 0.599973 0 3.72105 
562 1 562 0.838991 0.64001 0 4.81882 
563 1 563 0.838963 0.680054 0 5.62396 
564 1 564 0.83894 0.720098 0 6.17816 
565 1 565 0.83892 0.760145 0 6.31745 
566 1 566 0.838911 0.80019 0 6.21505 
567 1 567 0.838906 0.840234 0 6.40246 
568 1 568 0.838902 0.880273 0 6.48707 
569 1 569 0.838907 0.920307 0 6.78742 
570 1 570 0.838911 0.960339 0 6.85102 
571 1 571 0.838918 1.00037 0 6.55496 
572 1 572 0.88 0 0 0 
573 1 573 0.879912 0.039972 0 0.575514 
574 1 574 0.879822 0.0799487 0 1.07858 
575 1 575 0.879725 0.11993 0 1.29344 
576 1 576 0.879632 0.159913 0 1.3029 
577 1 577 0.879539 0.1999 0 1.19224 
578 1 578 0.879449 0.239889 0 1.10017 
579 1 579 0.87936 0.279881 0 1.15824 
580 1 580 0.879283 0.319876 0 1.36354 
581 1 581 0.879216 0.359874 0 1.77082 
582 1 582 0.879163 0.399873 0 2.46128 
583 1 583 0.87911 0.439876 0 3.10129 
584 1 584 0.879063 0.479884 0 3.126 
585 1 585 0.879019 0.5199 0 3.14737 
586 1 586 0.878981 0.559924 0 3.3188 
587 1 587 0.878948 0.599955 0 4.02918 
588 1 588 0.878914 0.639992 0 5.33189 
589 1 589 0.87888 0.680036 0 6.23354 
590 1 590 0.878857 0.720081 0 6.88497 
591 1 591 0.878837 0.76013 0 6.92306 
592 1 592 0.878833 0.800178 0 6.67497 
593 1 593 0.878833 0.840223 0 6.77858 
594 1 594 0.878836 0.880265 0 6.74467 
595 1 595 0.878846 0.920301 0 6.99448 
596 1 596 0.878853 0.960334 0 6.72623 
597 1 597 0.878865 1.00036 0 6.14684 
598 1 598 0.92 0 0 0 
599 1 599 0.919907 0.0399711 0 0.601355 
600 1 600 0.919812 0.0799491 0 1.14139 
601 1 601 0.919714 0.119931 0 1.33286 
602 1 602 0.919621 0.159914 0 1.37793 
603 1 603 0.919525 0.199901 0 1.27628 
604 1 604 0.919432 0.23989 0 1.23217 
605 1 605 0.919339 0.279882 0 1.46526 
606 1 606 0.919258 0.319874 0 1.74603 
607 1 607 0.919187 0.359868 0 2.15485 
608 1 608 0.919131 0.399864 0 2.84797 
609 1 609 0.919075 0.439863 0 3.50983 
610 1 610 0.919027 0.479868 0 3.60721 
611 1 611 0.918979 0.51988 0 3.69942 
612 1 612 0.918934 0.559901 0 3.89237 
613 1 613 0.918898 0.599932 0 4.56932 
614 1 614 0.918862 0.639972 0 5.88051 
615 1 615 0.918824 0.680018 0 6.84299 
616 1 616 0.918795 0.720065 0 7.55253 
617 1 617 0.918771 0.760116 0 7.56483 
618 1 618 0.918765 0.800164 0 7.25382 
619 1 619 0.918763 0.840211 0 7.23656 
620 1 620 0.918771 0.880254 0 7.06417 
621 1 621 0.918784 0.920291 0 7.14358 
622 1 622 0.918793 0.960326 0 6.56619 
623 1 623 0.918811 1.00036 0 5.82582 
624 1 624 0.96 0 0 0 
625 1 625 0.959895 0.0399699 0 0.463179 
626 1 626 0.959798 0.0799464 0 1.05698 
627 1 627 0.959701 0.119927 0 1.35846 
628 1 628 0.959607 0.159908 0 1.48376 
629 1 629 0.959509 0.199896 0 1.43557 
630 1 630 0.959415 0.239883 0 1.46033 
631 1 631 0.959319 0.279874 0 1.8159 
632 1 632 0.959234 0.319864 0 2.22556 
633 1 633 0.959157 0.359857 0 2.74986 
634 1 634 0.959096 0.399853 0 3.4765 
635 1 635 0.959036 0.439851 0 4.14852 
636 1 636 0.95898 0.479857 0 4.29029 
637 1 637 0.958925 0.519869 0 4.39318 
638 1 638 0.958875 0.559891 0 4.5902 
639 1 639 0.95883 0.599921 0 5.1403 
640 1 640 0.958785 0.639959 0 6.31925 
641 1 641 0.958741 0.680004 0 7.26504 
642 1 642 0.958711 0.72005 0 7.93242 
643 1 643 0.958687 0.7601 0 7.96561 
644 1 644 0.958682 0.800147 0 7.62548 
645 1 645 0.958686 0.840193 0 7.43851 
646 1 646 0.9587 0.880235 0 7.16799 
647 1 647 0.958715 0.920273 0 7.09949 
648 1 648 0.958729 0.960308 0 6.36706 
649 1 649 0.958753 1.00034 0 5.61816 
650 1 650 1 0 0 0 
651 1 651 0.99989 0.0399677 0 0.298099 
652 1 652 0.999788 0.0799413 0 0.900436 
653 1 653 0.999689 0.119919 0 1.36295 
654 1 654 0.999594 0.159899 0 1.63309 
655 1 655 0.999496 0.199884 0 1.73684 
656 1 656 0.999399 0.239871 0 1.90736 
657 1 657 0.9993 0.279861 0 2.34507 
658 1 658 0.999213 0.31985 0 2.86453 
659 1 659 0.999132 0.359843 0 3.49097 
660 1 660 0.999066 0.39984 0 4.15461 
661 1 661 0.999003 0.43984 0 4.7731 
662 1 662 0.998945 0.479846 0 5.00333 
663 1 663 0.998886 0.519858 0 5.12057 
664 1 664 0.99883 0.559879 0 5.25924 
665 1 665 0.998778 0.59991 0 5.55714 
666 1 666 0.998732 0.63995 0 6.43752 
667 1 667 0.998685 0.679994 0 7.27094 
668 1 668 0.998649 0.72004 0 7.84396 
669 1 669 0.998622 0.760086 0 7.94683 
670 1 670 0.998613 0.80013 0 7.6837 
671 1 671 0.998616 0.840174 0 7.48145 
672 1 672 0.998632 0.880213 0 7.20138 
673 1 673 0.998649 0.92025 0 6.96032 
674 1 674 0.998666 0.960284 0 6.26975 
675 1 675 0.998692 1.00032 0 5.70157 
676 1 676 1.04 0 0 0 
677 1 677 1.03988 0.0399661 0 0.200016 
678 1 678 1.03978 0.0799369 0 0.829126 
679 1 679 1.03968 0.119911 0 1.50275 
680 1 680 1.03958 0.159889 0 1.9618 
681 1 681 1.03948 0.199873 0 2.18215 
682 1 682 1.03938 0.239859 0 2.42633 
683 1 683 1.03928 0.279849 0 2.90658 
684 1 684 1.03919 0.31984 0 3.52023 
685 1 685 1.0391 0.359834 0 4.20557 
686 1 686 1.03903 0.399833 0 4.76329 
687 1 687 1.03896 0.439836 0 5.28473 
688 1 688 1.03889 0.479845 0 5.53913 
689 1 689 1.03883 0.51986 0 5.59923 
690 1 690 1.03877 0.559881 0 5.65587 
691 1 691 1.03871 0.59991 0 5.69734 
692 1 692 1.03865 0.639944 0 6.18851 
693 1 693 1.0386 0.679983 0 6.81543 
694 1 694 1.03857 0.720024 0 7.31373 
695 1 695 1.03854 0.760065 0 7.59427 
696 1 696 1.03853 0.800105 0 7.47911 
697 1 697 1.03854 0.840145 0 7.27007 
698 1 698 1.03856 0.880183 0 6.93725 
699 1 699 1.03858 0.920219 0 6.59739 
700 1 700 1.0386 0.960254 0 6.19472 
701 1 701 1.03862 1.00029 0 5.93217 
702 1 702 1.08 0 0 0 
703 1 703 1.07988 0.0399657 0 0.289145 
704 1 704 1.07977 0.0799347 0 0.995571 
705 1 705 1.07967 0.119907 0 1.83654 
706 1 706 1.07957 0.159884 0 2.43192 
707 1 707 1.07947 0.199866 0 2.75246 
708 1 708 1.07937 0.239853 0 3.05038 
709 1 709 1.07926 0.279843 0 3.48523 
710 1 710 1.07917 0.319835 0 4.07428 
711 1 711 1.07908 0.35983 0 4.73318 
712 1 712 1.079 0.399831 0 5.16138 
713 1 713 1.07893 0.439836 0 5.53007 
714 1 714 1.07886 0.479845 0 5.77606 
715 1 715 1.07879 0.519859 0 5.84223 
716 1 716 1.07872 0.559878 0 5.79771 
717 1 717 1.07865 0.599905 0 5.52895 
718 1 718 1.0786 0.639938 0 5.60977 
719 1 719 1.07855 0.679973 0 5.99568 
720 1 720 1.07851 0.720009 0 6.4357 
721 1 721 1.07848 0.760045 0 6.95796 
722 1 722 1.07847 0.80008 0 7.1039 
723 1 723 1.07847 0.840115 0 7.01162 
724 1 724 1.07849 0.880151 0 6.69248 
725 1 725 1.07851 0.920186 0 6.35277 
726 1 726 1.07853 0.96022 0 6.2315 
727 1 727 1.07855 1.00025 0 6.1889 
728 1 728 1.12 0 0 0 
729 1 729 1.11988 0.0399668 0 0.583421 
730 1 730 1.11977 0.0799351 0 1.39103 
731 1 731 1.11967 0.119907 0 2.30288 
732 1 732 1.11956 0.159884 0 2.97967 
733 1 733 1.11946 0.199866 0 3.37667 
734 1 734 1.11935 0.239852 0 3.65508 
735 1 735 1.11925 0.279843 0 3.95103 
736 1 736 1.11915 0.319837 0 4.44762 
737 1 737 1.11905 0.359834 0 4.99643 
738 1 738 1.11896 0.399836 0 5.24326 
739 1 739 1.11888 0.439842 0 5.41028 
740 1 740 1.11881 0.479852 0 5.57855 
741 1 741 1.11873 0.519867 0 5.65628 
742 1 742 1.11866 0.559884 0 5.58059 
743 1 743 1.11858 0.599905 0 5.17967 
744 1 744 1.11852 0.639929 0 4.99589 
745 1 745 1.11846 0.679957 0 5.19292 
746 1 746 1.11843 0.719987 0 5.64267 
747 1 747 1.1184 0.760017 0 6.37662 
748 1 748 1.11839 0.800048 0 6.76448 
749 1 749 1.11839 0.84008 0 6.84333 
750 1 750 1.11841 0.880115 0 6.55282 
751 1 751 1.11843 0.920152 0 6.19819 
752 1 752 1.11845 0.960187 0 6.22992 
753 1 753 1.11847 1.00022 0 6.29415 
754 1 754 1.16 0 0 0 
755 1 755 1.15988 0.0399683 0 0.941462 
756 1 756 1.15977 0.0799377 0 1.89096 
757 1 757 1.15966 0.119911 0 2.83597 
758 1 758 1.15956 0.159888 0 3.5283 
759 1 759 1.15944 0.199869 0 3.90259 
760 1 760 1.15934 0.239856 0 4.09414 
761 1 761 1.15923 0.279847 0 4.23095 
762 1 762 1.15912 0.319841 0 4.56999 
763 1 763 1.15902 0.359839 0 4.93641 
764 1 764 1.15893 0.39984 0 5.02401 
765 1 765 1.15885 0.439845 0 5.04558 
766 1 766 1.15877 0.479853 0 5.16535 
767 1 767 1.15869 0.519864 0 5.30054 
768 1 768 1.15861 0.559876 0 5.23277 
769 1 769 1.15854 0.599894 0 4.78461 
770 1 770 1.15847 0.639915 0 4.39615 
771 1 771 1.15842 0.679939 0 4.41928 
772 1 772 1.15837 0.719964 0 4.90209 
773 1 773 1.15834 0.75999 0 5.79411 
774 1 774 1.15833 0.800019 0 6.4252 
775 1 775 1.15832 0.840049 0 6.69509 
776 1 776 1.15833 0.880083 0 6.43284 
777 1 777 1.15835 0.920121 0 6.10192 
778 1 778 1.15837 0.960158 0 6.23747 
779 1 779 1.1584 1.0002 0 6.34994 
780 1 780 1.2 0 0 0 
781 1 781 1.19988 0.0399708 0 1.36969 
782 1 782 1.19977 0.0799409 0 2.41877 
783 1 783 1.19966 0.119914 0 3.23501 
784 1 784 1.19955 0.159891 0 3.831 
785 1 785 1.19943 0.199872 0 4.13348 
786 1 786 1.19932 0.239859 0 4.26406 
787 1 787 1.1992 0.279848 0 4.30975 
788 1 788 1.1991 0.319843 0 4.51448 
789 1 789 1.19899 0.35984 0 4.68375 
790 1 790 1.1989 0.399841 0 4.58933 
791 1 791 1.1988 0.439846 0 4.48544 
792 1 792 1.19872 0.479853 0 4.60358 
793 1 793 1.19863 0.519863 0 4.81482 