ITEM: TIMESTEP
0
ITEM: NUMBER OF ATOMS
7127
ITEM: BOX BOUNDS sm sm sm
0 4
0 2
0 0
ITEM: ATOMS id type tag x y z vx 
0 1 0 0 0 0 0 
1 1 1 0 0.04 0 0 
2 1 2 0 0.08 0 0 
3 1 3 0 0.12 0 0 
4 1 4 0 0.16 0 0 
5 1 5 0 0.2 0 0 
6 1 6 0 0.24 0 0 
7 1 7 0 0.28 0 0 
8 1 8 0 0.32 0 0 
9 1 9 0 0.36 0 0 
10 1 10 0 0.4 0 0 
11 1 11 0 0.44 0 0 
12 1 12 0 0.48 0 0 
13 1 13 0 0.52 0 0 
14 1 14 0 0.56 0 0 
15 1 15 0 0.6 0 0 
16 1 16 0 0.64 0 0 
17 1 17 0 0.68 0 0 
18 1 18 0 0.72 0 0 
19 1 19 0 0.76 0 0 
20 1 20 0 0.8 0 0 
21 1 21 0 0.84 0 0 
22 1 22 0 0.88 0 0 
23 1 23 0 0.92 0 0 
24 1 24 0 0.96 0 0 
25 1 25 0 1 0 0 
26 1 26 0.04 0 0 0 
27 1 27 0.0399921 0.0399914 0 -0.0579346 
28 1 28 0.0399873 0.0799876 0 -0.158838 
29 1 29 0.0399888 0.119984 0 0.0932041 
30 1 30 0.0399863 0.15998 0 0.172765 
31 1 31 0.0399841 0.199977 0 0.131595 
32 1 32 0.039979 0.239975 0 0.362012 
33 1 33 0.0399717 0.279977 0 0.329356 
34 1 34 0.0399675 0.319978 0 0.292408 
35 1 35 0.0399615 0.359982 0 0.246407 
36 1 36 0.0399589 0.399985 0 0.030942 
37 1 37 0.0399596 0.439986 0 -0.15229 
38 1 38 0.0399592 0.479986 0 -0.0715726 
39 1 39 0.0399581 0.519987 0 -0.177554 
40 1 40 0.0399618 0.559989 0 -0.149698 
41 1 41 0.039957 0.599994 0 -0.145668 
42 1 42 0.0399602 0.640001 0 -0.36907 
43 1 43 0.0399609 0.680006 0 -0.182506 
44 1 44 0.0399589 0.720012 0 -0.363203 
45 1 45 0.0399638 0.760013 0 -0.343131 
46 1 46 0.039961 0.800015 0 -0.206068 
47 1 47 0.0399637 0.840016 0 -0.258637 
48 1 48 0.0399638 0.880018 0 -0.208617 
49 1 49 0.0399661 0.92002 0 -0.330057 
50 1 50 0.039967 0.960026 0 -0.357282 
51 1 51 0.0399465 1.00005 0 -0.336094 
52 1 52 0.08 0 0 0 
53 1 53 0.0799871 0.0399887 0 -0.0697399 
54 1 54 0.0799772 0.0799802 0 -0.175102 
55 1 55 0.0799792 0.119974 0 0.0682131 
56 1 56 0.0799723 0.159968 0 0.137366 
57 1 57 0.0799658 0.199964 0 0.206369 
58 1 58 0.0799569 0.23996 0 0.609205 
59 1 59 0.0799416 0.279961 0 0.65989 
60 1 60 0.0799334 0.319964 0 0.631984 
61 1 61 0.0799216 0.35997 0 0.339827 
62 1 62 0.0799195 0.399974 0 -0.0951082 
63 1 63 0.0799189 0.439978 0 -0.418545 
64 1 64 0.0799207 0.479979 0 -0.35641 
65 1 65 0.0799161 0.51998 0 -0.369947 
66 1 66 0.0799197 0.559982 0 -0.262564 
67 1 67 0.0799091 0.599986 0 -0.254114 
68 1 68 0.079914 0.639994 0 -0.642972 
69 1 69 0.0799151 0.68 0 -0.438727 
70 1 70 0.0799151 0.720005 0 -0.635881 
71 1 71 0.0799229 0.760011 0 -0.519785 
72 1 72 0.07992 0.800014 0 -0.304883 
73 1 73 0.0799243 0.840021 0 -0.374164 
74 1 74 0.0799267 0.880026 0 -0.191383 
75 1 75 0.0799293 0.920036 0 -0.39261 
76 1 76 0.0799239 0.960053 0 -0.68668 
77 1 77 0.0799153 1.00006 0 -0.81493 
78 1 78 0.12 0 0 0 
79 1 79 0.119982 0.0399871 0 0.0503244 
80 1 80 0.119971 0.0799776 0 -0.127353 
81 1 81 0.119967 0.119968 0 -0.0451819 
82 1 82 0.119956 0.15996 0 0.0775021 
83 1 83 0.119946 0.199955 0 0.257594 
84 1 84 0.119932 0.23995 0 0.669174 
85 1 85 0.119911 0.27995 0 0.843497 
86 1 86 0.119899 0.319953 0 0.813301 
87 1 87 0.119882 0.359958 0 0.223717 
88 1 88 0.119881 0.399964 0 -0.373211 
89 1 89 0.11988 0.439967 0 -0.775322 
90 1 90 0.119883 0.479971 0 -0.807442 
91 1 91 0.119879 0.519969 0 -0.5868 
92 1 92 0.119878 0.559972 0 -0.388126 
93 1 93 0.11987 0.599973 0 -0.365782 
94 1 94 0.11987 0.639976 0 -0.636299 
95 1 95 0.119872 0.679983 0 -0.55134 
96 1 96 0.119872 0.719989 0 -0.666025 
97 1 97 0.11988 0.759997 0 -0.391766 
98 1 98 0.119877 0.800007 0 -0.215833 
99 1 99 0.119883 0.840017 0 -0.203271 
100 1 100 0.119885 0.88003 0 -0.0364192 
101 1 101 0.119886 0.920045 0 -0.469661 
102 1 102 0.119886 0.96006 0 -1.04249 
103 1 103 0.119881 1.00008 0 -1.33217 
104 1 104 0.16 0 0 0 
105 1 105 0.159978 0.0399882 0 0.1137 
106 1 106 0.159962 0.079977 0 -0.11178 
107 1 107 0.159953 0.119965 0 -0.130383 
108 1 108 0.159939 0.159957 0 -0.0248235 
109 1 109 0.159926 0.199947 0 0.133727 
110 1 110 0.159906 0.239941 0 0.5246 
111 1 111 0.15988 0.279939 0 0.833756 
112 1 112 0.159864 0.319939 0 0.805357 
113 1 113 0.159845 0.359942 0 0.108479 
114 1 114 0.159844 0.399946 0 -0.525095 
115 1 115 0.159842 0.439948 0 -0.982108 
116 1 116 0.159846 0.479951 0 -1.0873 
117 1 117 0.159842 0.519951 0 -0.69902 
118 1 118 0.159836 0.55995 0 -0.489781 
119 1 119 0.159827 0.599953 0 -0.500561 
120 1 120 0.159823 0.639952 0 -0.530429 
121 1 121 0.15982 0.679961 0 -0.591349 
122 1 122 0.159825 0.719968 0 -0.654148 
123 1 123 0.159828 0.759981 0 -0.19685 
124 1 124 0.159827 0.799996 0 -0.0758182 
125 1 125 0.159834 0.840012 0 0.0894063 
126 1 126 0.159835 0.880032 0 0.165471 
127 1 127 0.159843 0.920049 0 -0.502009 
128 1 128 0.159846 0.960067 0 -1.25668 
129 1 129 0.159845 1.00008 0 -1.69261 
130 1 130 0.2 0 0 0 
131 1 131 0.199973 0.0399844 0 0.0169424 
132 1 132 0.199953 0.0799707 0 -0.169886 
133 1 133 0.199938 0.119958 0 -0.36742 
134 1 134 0.199923 0.159948 0 -0.381499 
135 1 135 0.199905 0.199935 0 -0.164394 
136 1 136 0.19988 0.239926 0 0.258515 
137 1 137 0.199851 0.279921 0 0.701983 
138 1 138 0.19983 0.319917 0 0.721641 
139 1 139 0.199812 0.359918 0 0.0428132 
140 1 140 0.19981 0.399919 0 -0.461623 
141 1 141 0.199808 0.439922 0 -0.884899 
142 1 142 0.199812 0.479922 0 -1.046 
143 1 143 0.199808 0.519926 0 -0.630668 
144 1 144 0.199799 0.559925 0 -0.47721 
145 1 145 0.199791 0.599928 0 -0.469257 
146 1 146 0.199785 0.63993 0 -0.357144 
147 1 147 0.199776 0.679937 0 -0.526287 
148 1 148 0.199779 0.71995 0 -0.457698 
149 1 149 0.199776 0.759965 0 0.0455467 
150 1 150 0.199777 0.799987 0 0.0951102 
151 1 151 0.199784 0.840007 0 0.369497 
152 1 152 0.199786 0.88003 0 0.224481 
153 1 153 0.199799 0.920052 0 -0.562446 
154 1 154 0.199803 0.960071 0 -1.45468 
155 1 155 0.199806 1.00009 0 -2.10816 
156 1 156 0.24 0 0 0 
157 1 157 0.239967 0.039978 0 -0.17791 
158 1 158 0.239945 0.0799583 0 -0.405997 
159 1 159 0.239925 0.11994 0 -0.780833 
160 1 160 0.239906 0.159923 0 -0.793706 
161 1 161 0.239885 0.199908 0 -0.454252 
162 1 162 0.239855 0.239896 0 -0.00154572 
163 1 163 0.239825 0.279888 0 0.493919 
164 1 164 0.239799 0.319884 0 0.569627 
165 1 165 0.23978 0.359884 0 0.0486711 
166 1 166 0.239775 0.399885 0 -0.211948 
167 1 167 0.239772 0.439891 0 -0.482027 
168 1 168 0.239775 0.479896 0 -0.71806 
169 1 169 0.239771 0.519902 0 -0.414114 
170 1 170 0.23976 0.559906 0 -0.336042 
171 1 171 0.239749 0.599907 0 -0.328732 
172 1 172 0.239736 0.639914 0 -0.16598 
173 1 173 0.239723 0.67992 0 -0.478275 
174 1 174 0.239725 0.719935 0 -0.339913 
175 1 175 0.239716 0.759955 0 0.108772 
176 1 176 0.239719 0.799978 0 0.0863719 
177 1 177 0.239727 0.840004 0 0.443326 
178 1 178 0.239733 0.880028 0 0.134706 
179 1 179 0.239751 0.920051 0 -0.601725 
180 1 180 0.239758 0.960074 0 -1.55234 
181 1 181 0.239763 1.0001 0 -2.39469 
182 1 182 0.28 0 0 0 
183 1 183 0.279967 0.039972 0 -0.392164 
184 1 184 0.279941 0.079942 0 -0.755702 
185 1 185 0.279915 0.119916 0 -1.1959 
186 1 186 0.279893 0.159892 0 -1.20574 
187 1 187 0.279868 0.199873 0 -0.867919 
188 1 188 0.279833 0.239858 0 -0.309587 
189 1 189 0.279798 0.279849 0 0.172733 
190 1 190 0.279769 0.319845 0 0.307317 
191 1 191 0.279749 0.359845 0 0.202409 
192 1 192 0.27974 0.399849 0 0.129125 
193 1 193 0.279736 0.439857 0 0.0127211 
194 1 194 0.279735 0.479867 0 -0.210616 
195 1 195 0.279731 0.519877 0 -0.214475 
196 1 196 0.279724 0.559885 0 -0.2093 
197 1 197 0.279712 0.599892 0 -0.246723 
198 1 198 0.2797 0.639898 0 -0.102517 
199 1 199 0.279681 0.67991 0 -0.332422 
200 1 200 0.279676 0.719925 0 -0.237873 
201 1 201 0.279664 0.759948 0 0.0979649 
202 1 202 0.279667 0.799972 0 0.191609 
203 1 203 0.279673 0.839998 0 0.474733 
204 1 204 0.279683 0.880026 0 0.0249365 
205 1 205 0.279703 0.920049 0 -0.565402 
206 1 206 0.279711 0.960074 0 -1.6247 
207 1 207 0.279723 1.0001 0 -2.61895 
208 1 208 0.32 0 0 0 
209 1 209 0.319968 0.0399646 0 -0.456067 
210 1 210 0.319941 0.0799274 0 -0.936104 
211 1 211 0.319912 0.119895 0 -1.42135 
212 1 212 0.319885 0.159865 0 -1.46832 
213 1 213 0.319853 0.199842 0 -1.24647 
214 1 214 0.319814 0.239824 0 -0.695916 
215 1 215 0.319773 0.279814 0 -0.293844 
216 1 216 0.319741 0.319809 0 -0.118015 
217 1 217 0.319718 0.359809 0 0.219465 
218 1 218 0.319703 0.399815 0 0.320665 
219 1 219 0.319697 0.439824 0 0.381282 
220 1 220 0.319691 0.479837 0 0.252208 
221 1 221 0.319687 0.519852 0 -0.123883 
222 1 222 0.31968 0.559864 0 -0.156759 
223 1 223 0.319663 0.599876 0 -0.130115 
224 1 224 0.319648 0.639886 0 -0.123532 
225 1 225 0.319628 0.679899 0 -0.202686 
226 1 226 0.319615 0.719918 0 -0.139407 
227 1 227 0.319603 0.759941 0 -0.0835353 
228 1 228 0.319609 0.799967 0 0.164562 
229 1 229 0.319614 0.839993 0 0.357523 
230 1 230 0.319631 0.880019 0 -0.184382 
231 1 231 0.319651 0.920045 0 -0.531735 
232 1 232 0.319662 0.960071 0 -1.59816 
233 1 233 0.31968 1.00009 0 -2.63089 
234 1 234 0.36 0 0 0 
235 1 235 0.359973 0.0399587 0 -0.328751 
236 1 236 0.359943 0.0799181 0 -0.855801 
237 1 237 0.359911 0.119881 0 -1.40556 
238 1 238 0.359879 0.159847 0 -1.51367 
239 1 239 0.359842 0.199823 0 -1.45166 
240 1 240 0.3598 0.239803 0 -1.08733 
241 1 241 0.359753 0.27979 0 -0.829452 
242 1 242 0.359715 0.319783 0 -0.689358 
243 1 243 0.359689 0.359781 0 -0.149242 
244 1 244 0.359666 0.399785 0 0.168641 
245 1 245 0.359656 0.439795 0 0.44801 
246 1 246 0.359646 0.479809 0 0.346204 
247 1 247 0.359641 0.519825 0 -0.244058 
248 1 248 0.359638 0.55984 0 -0.289659 
249 1 249 0.359624 0.599855 0 -0.241513 
250 1 250 0.359611 0.639871 0 -0.258756 
251 1 251 0.359588 0.679887 0 -0.214472 
252 1 252 0.359568 0.719908 0 -0.161153 
253 1 253 0.359554 0.759933 0 -0.219649 
254 1 254 0.35956 0.799957 0 0.105064 
255 1 255 0.359564 0.839984 0 0.198321 
256 1 256 0.359583 0.880008 0 -0.320668 
257 1 257 0.359601 0.920033 0 -0.514331 
258 1 258 0.359614 0.96006 0 -1.48324 
259 1 259 0.359636 1.00008 0 -2.37342 
260 1 260 0.4 0 0 0 
261 1 261 0.399976 0.0399573 0 -0.0492207 
262 1 262 0.399946 0.0799151 0 -0.46048 
263 1 263 0.399913 0.119876 0 -1.00608 
264 1 264 0.399876 0.159843 0 -1.31481 
265 1 265 0.399832 0.199818 0 -1.55039 
266 1 266 0.399785 0.239798 0 -1.5357 
267 1 267 0.399735 0.279784 0 -1.53811 
268 1 268 0.399693 0.319773 0 -1.38547 
269 1 269 0.39966 0.359769 0 -0.69492 
270 1 270 0.399632 0.399769 0 -0.248571 
271 1 271 0.399617 0.439776 0 0.165358 
272 1 272 0.399601 0.479787 0 0.0913361 
273 1 273 0.399595 0.519801 0 -0.50664 
274 1 274 0.399589 0.559819 0 -0.510753 
275 1 275 0.399571 0.599835 0 -0.540883 
276 1 276 0.399557 0.639853 0 -0.499685 
277 1 277 0.399531 0.679872 0 -0.3321 
278 1 278 0.399511 0.719893 0 -0.399832 
279 1 279 0.3995 0.759915 0 -0.490338 
280 1 280 0.399504 0.799939 0 -0.171113 
281 1 281 0.39951 0.839963 0 -0.234574 
282 1 282 0.399532 0.879988 0 -0.597265 
283 1 283 0.399547 0.920013 0 -0.614574 
284 1 284 0.399562 0.960038 0 -1.31595 
285 1 285 0.399587 1.00006 0 -1.89461 
286 1 286 0.44 0 0 0 
287 1 287 0.439979 0.0399574 0 0.224287 
288 1 288 0.439949 0.0799169 0 0.0383106 
289 1 289 0.439914 0.119879 0 -0.399265 
290 1 290 0.439872 0.159849 0 -0.914613 
291 1 291 0.439824 0.199823 0 -1.46745 
292 1 292 0.439773 0.239805 0 -1.82957 
293 1 293 0.439721 0.27979 0 -2.10873 
294 1 294 0.439675 0.319776 0 -1.98354 
295 1 295 0.439637 0.359768 0 -1.30538 
296 1 296 0.439604 0.399763 0 -0.896097 
297 1 297 0.439582 0.439764 0 -0.467678 
298 1 298 0.439561 0.479771 0 -0.525241 
299 1 299 0.439554 0.519782 0 -1.08618 
300 1 300 0.439547 0.559798 0 -1.07962 
301 1 301 0.439534 0.599815 0 -1.09631 
302 1 302 0.439522 0.639834 0 -0.940012 
303 1 303 0.439494 0.679854 0 -0.694638 
304 1 304 0.439471 0.719875 0 -0.765596 
305 1 305 0.439459 0.759895 0 -0.850509 
306 1 306 0.439461 0.799917 0 -0.635325 
307 1 307 0.439466 0.839938 0 -0.767843 
308 1 308 0.439485 0.879961 0 -0.943065 
309 1 309 0.439495 0.919987 0 -0.817385 
310 1 310 0.439509 0.960013 0 -1.12032 
311 1 311 0.439532 1.00004 0 -1.30956 
312 1 312 0.48 0 0 0 
313 1 313 0.479979 0.0399594 0 0.350253 
314 1 314 0.47995 0.0799224 0 0.416902 
315 1 315 0.479914 0.119887 0 0.155237 
316 1 316 0.479867 0.159859 0 -0.480301 
317 1 317 0.479815 0.199836 0 -1.26263 
318 1 318 0.479761 0.239818 0 -2.00304 
319 1 319 0.47971 0.279802 0 -2.49975 
320 1 320 0.479659 0.319786 0 -2.4633 
321 1 321 0.479616 0.359774 0 -1.98268 
322 1 322 0.479579 0.399765 0 -1.6245 
323 1 323 0.479549 0.439763 0 -1.27599 
324 1 324 0.479526 0.479765 0 -1.37556 
325 1 325 0.479513 0.519773 0 -1.7613 
326 1 326 0.479499 0.559785 0 -1.74628 
327 1 327 0.479483 0.599802 0 -1.78323 
328 1 328 0.479466 0.639821 0 -1.5646 
329 1 329 0.479439 0.679839 0 -1.32884 
330 1 330 0.47942 0.719858 0 -1.31195 
331 1 331 0.479408 0.759874 0 -1.38523 
332 1 332 0.479408 0.799894 0 -1.35284 
333 1 333 0.479414 0.839911 0 -1.44633 
334 1 334 0.47943 0.879934 0 -1.43171 
335 1 335 0.479437 0.919958 0 -1.20082 
336 1 336 0.479451 0.959984 0 -1.05084 
337 1 337 0.479469 1.00001 0 -0.856761 
338 1 338 0.52 0 0 0 
339 1 339 0.51998 0.0399634 0 0.316593 
340 1 340 0.51995 0.0799288 0 0.623857 
341 1 341 0.51991 0.119898 0 0.600891 
342 1 342 0.51986 0.159872 0 -0.17314 
343 1 343 0.519806 0.19985 0 -1.15736 
344 1 344 0.519749 0.239833 0 -2.20963 
345 1 345 0.5197 0.279814 0 -2.80966 
346 1 346 0.519646 0.319797 0 -2.74102 
347 1 347 0.519599 0.359782 0 -2.48326 
348 1 348 0.519558 0.399769 0 -2.25994 
349 1 349 0.519522 0.439764 0 -2.14804 
350 1 350 0.519495 0.479761 0 -2.36828 
351 1 351 0.519476 0.519766 0 -2.57363 
352 1 352 0.51946 0.559778 0 -2.5884 
353 1 353 0.519449 0.599793 0 -2.60055 
354 1 354 0.519432 0.639811 0 -2.2982 
355 1 355 0.519408 0.67983 0 -2.00933 
356 1 356 0.519388 0.719846 0 -1.79941 
357 1 357 0.519372 0.759858 0 -1.89481 
358 1 358 0.519369 0.799874 0 -2.05627 
359 1 359 0.519371 0.839889 0 -2.08801 
360 1 360 0.519378 0.87991 0 -1.95627 
361 1 361 0.519381 0.919933 0 -1.64212 
362 1 362 0.51939 0.95996 0 -1.11146 
363 1 363 0.519399 0.999991 0 -0.643313 
364 1 364 0.56 0 0 0 
365 1 365 0.559977 0.0399682 0 0.118384 
366 1 366 0.559948 0.0799369 0 0.489581 
367 1 367 0.559906 0.119909 0 0.726014 
368 1 368 0.559852 0.159886 0 -0.0668617 
369 1 369 0.559795 0.199864 0 -1.14233 
370 1 370 0.559738 0.239847 0 -2.28915 
371 1 371 0.55969 0.279826 0 -2.9118 
372 1 372 0.559633 0.319808 0 -2.87217 
373 1 373 0.559581 0.359791 0 -2.8356 
374 1 374 0.559535 0.399777 0 -2.85845 
375 1 375 0.559494 0.439769 0 -3.05698 
376 1 376 0.559463 0.479765 0 -3.27994 
377 1 377 0.559436 0.519769 0 -3.32652 
378 1 378 0.559414 0.559779 0 -3.40631 
379 1 379 0.559396 0.599794 0 -3.31207 
380 1 380 0.559373 0.639811 0 -3.00467 
381 1 381 0.559354 0.679826 0 -2.76619 
382 1 382 0.559339 0.719839 0 -2.38783 
383 1 383 0.559323 0.759849 0 -2.47412 
384 1 384 0.559319 0.799861 0 -2.70625 
385 1 385 0.559317 0.839874 0 -2.63401 
386 1 386 0.559317 0.879893 0 -2.42517 
387 1 387 0.559317 0.919916 0 -2.06613 
388 1 388 0.559322 0.959944 0 -1.35502 
389 1 389 0.559324 0.999976 0 -0.785643 
390 1 390 0.6 0 0 0 
391 1 391 0.599975 0.0399712 0 -0.144071 
392 1 392 0.599943 0.0799453 0 0.184603 
393 1 393 0.599897 0.119921 0 0.591859 
394 1 394 0.599841 0.1599 0 -0.140039 
395 1 395 0.599783 0.199879 0 -1.28604 
396 1 396 0.599726 0.239859 0 -2.45124 
397 1 397 0.599677 0.279839 0 -2.96548 
398 1 398 0.599619 0.319819 0 -2.97941 
399 1 399 0.599566 0.359801 0 -3.03896 
400 1 400 0.599514 0.399787 0 -3.15545 
401 1 401 0.599468 0.439777 0 -3.63594 
402 1 402 0.599432 0.479774 0 -3.87858 
403 1 403 0.599398 0.519776 0 -3.90898 
404 1 404 0.599374 0.559785 0 -4.11632 
405 1 405 0.59936 0.599798 0 -3.97522 
406 1 406 0.59934 0.639814 0 -3.71837 
407 1 407 0.599325 0.679828 0 -3.43463 
408 1 408 0.599309 0.719838 0 -2.89691 
409 1 409 0.599291 0.759847 0 -2.93502 
410 1 410 0.599281 0.799856 0 -3.10517 
411 1 411 0.59927 0.839868 0 -2.96938 
412 1 412 0.599261 0.879887 0 -2.72432 
413 1 413 0.599255 0.919909 0 -2.37832 
414 1 414 0.599253 0.959938 0 -1.73332 
415 1 415 0.599246 0.999971 0 -1.22432 
416 1 416 0.64 0 0 0 
417 1 417 0.63997 0.0399749 0 -0.444959 
418 1 418 0.639933 0.0799543 0 -0.159307 
419 1 419 0.639886 0.119934 0 0.266538 
420 1 420 0.639829 0.159914 0 -0.376064 
421 1 421 0.639769 0.199896 0 -1.39186 
422 1 422 0.639712 0.239876 0 -2.46366 
423 1 423 0.639663 0.279855 0 -2.81933 
424 1 424 0.639603 0.319837 0 -2.83477 
425 1 425 0.639546 0.359818 0 -3.01058 
426 1 426 0.639489 0.399805 0 -3.31009 
427 1 427 0.639438 0.439795 0 -4.04158 
428 1 428 0.639397 0.479792 0 -4.30102 
429 1 429 0.639358 0.519794 0 -4.29324 
430 1 430 0.639328 0.559801 0 -4.49589 
431 1 431 0.639305 0.599812 0 -4.38568 
432 1 432 0.63928 0.639824 0 -4.26193 
433 1 433 0.639269 0.679835 0 -3.93738 
434 1 434 0.639256 0.719843 0 -3.37925 
435 1 435 0.639241 0.75985 0 -3.32328 
436 1 436 0.639227 0.799858 0 -3.28446 
437 1 437 0.639211 0.839871 0 -3.1142 
438 1 438 0.639198 0.879889 0 -2.81889 
439 1 439 0.639186 0.919913 0 -2.54436 
440 1 440 0.639179 0.959943 0 -2.20331 
441 1 441 0.639169 0.999976 0 -1.87863 
442 1 442 0.68 0 0 0 
443 1 443 0.679963 0.0399778 0 -0.626642 
444 1 444 0.679921 0.0799596 0 -0.422623 
445 1 445 0.67987 0.119944 0 -0.0847089 
446 1 446 0.679813 0.159929 0 -0.613062 
447 1 447 0.679752 0.199912 0 -1.40257 
448 1 448 0.679695 0.239893 0 -2.3216 
449 1 449 0.679644 0.279875 0 -2.65927 
450 1 450 0.679584 0.319858 0 -2.75793 
451 1 451 0.679527 0.359841 0 -2.96859 
452 1 452 0.679466 0.399828 0 -3.36611 
453 1 453 0.679413 0.439818 0 -4.07137 
454 1 454 0.679366 0.479814 0 -4.24305 
455 1 455 0.679322 0.519814 0 -4.33655 
456 1 456 0.679291 0.559819 0 -4.59587 
457 1 457 0.679269 0.599826 0 -4.59392 
458 1 458 0.67925 0.639836 0 -4.59413 
459 1 459 0.67924 0.679844 0 -4.27322 
460 1 460 0.679223 0.719852 0 -3.81879 
461 1 461 0.679208 0.759859 0 -3.60346 
462 1 462 0.679185 0.799868 0 -3.33142 
463 1 463 0.679161 0.839882 0 -3.20086 
464 1 464 0.679141 0.879901 0 -2.8724 
465 1 465 0.67912 0.919925 0 -2.74136 
466 1 466 0.679106 0.959957 0 -2.77856 
467 1 467 0.679091 0.99999 0 -2.64157 
468 1 468 0.72 0 0 0 
469 1 469 0.71995 0.039979 0 -0.558492 
470 1 470 0.719902 0.0799643 0 -0.543215 
471 1 471 0.719849 0.119953 0 -0.398836 
472 1 472 0.719792 0.159942 0 -0.739412 
473 1 473 0.719732 0.199927 0 -1.32358 
474 1 474 0.719678 0.239911 0 -2.06763 
475 1 475 0.719623 0.279896 0 -2.35971 
476 1 476 0.719564 0.319883 0 -2.58645 
477 1 477 0.719506 0.359868 0 -2.78631 
478 1 478 0.71944 0.399857 0 -3.2073 
479 1 479 0.719385 0.439846 0 -3.87973 
480 1 480 0.719331 0.479842 0 -4.07289 
481 1 481 0.719284 0.519841 0 -4.26996 
482 1 482 0.719248 0.559843 0 -4.47442 
483 1 483 0.719216 0.599847 0 -4.55112 
484 1 484 0.719191 0.639852 0 -4.63593 
485 1 485 0.719179 0.679858 0 -4.37477 
486 1 486 0.719164 0.719865 0 -4.10981 
487 1 487 0.719151 0.759873 0 -3.77257 
488 1 488 0.719124 0.799884 0 -3.36153 
489 1 489 0.719099 0.8399 0 -3.26627 
490 1 490 0.719076 0.87992 0 -2.93195 
491 1 491 0.71905 0.919945 0 -3.02491 
492 1 492 0.719032 0.959976 0 -3.35709 
493 1 493 0.719012 1.00001 0 -3.32457 
494 1 494 0.76 0 0 0 
495 1 495 0.759939 0.0399776 0 -0.448123 
496 1 496 0.759881 0.0799664 0 -0.61591 
497 1 497 0.759825 0.119958 0 -0.692261 
498 1 498 0.759769 0.159949 0 -0.770606 
499 1 499 0.759711 0.199939 0 -1.02525 
500 1 500 0.759655 0.239927 0 -1.54049 
501 1 501 0.759597 0.279916 0 -1.87458 
502 1 502 0.75954 0.319906 0 -2.39799 
503 1 503 0.759483 0.359895 0 -2.7637 
504 1 504 0.759417 0.399885 0 -3.21864 
505 1 505 0.759361 0.439876 0 -3.70823 
506 1 506 0.759303 0.479871 0 -3.83003 
507 1 507 0.759255 0.519867 0 -4.01951 
508 1 508 0.759216 0.559866 0 -4.19251 
509 1 509 0.759186 0.599867 0 -4.43911 
510 1 510 0.759165 0.63987 0 -4.57506 
511 1 511 0.759148 0.679876 0 -4.42577 
512 1 512 0.759128 0.719884 0 -4.36267 
513 1 513 0.759109 0.759894 0 -3.94167 
514 1 514 0.759076 0.799908 0 -3.51478 
515 1 515 0.759046 0.839925 0 -3.47205 
516 1 516 0.759016 0.879946 0 -3.24461 
517 1 517 0.758985 0.919971 0 -3.56913 
518 1 518 0.758959 0.960001 0 -3.96229 
519 1 519 0.758932 1.00004 0 -3.91546 
520 1 520 0.8 0 0 0 
521 1 521 0.799923 0.0399779 0 -0.209794 
522 1 522 0.799856 0.0799663 0 -0.458368 
523 1 523 0.799798 0.119959 0 -0.79934 
524 1 524 0.799742 0.159953 0 -0.786797 
525 1 525 0.799683 0.199946 0 -0.775656 
526 1 526 0.799629 0.239941 0 -1.09885 
527 1 527 0.799569 0.279934 0 -1.55923 
528 1 528 0.799514 0.31993 0 -2.28361 
529 1 529 0.799458 0.359924 0 -2.68102 
530 1 530 0.799391 0.399917 0 -3.10899 
531 1 531 0.799333 0.43991 0 -3.43606 
532 1 532 0.79927 0.479905 0 -3.61212 
533 1 533 0.799222 0.519901 0 -3.88763 
534 1 534 0.799176 0.559898 0 -4.07212 
535 1 535 0.799137 0.599896 0 -4.348 
536 1 536 0.799106 0.639896 0 -4.42952 
537 1 537 0.799084 0.6799 0 -4.45719 
538 1 538 0.799063 0.719907 0 -4.53931 
539 1 539 0.799042 0.759919 0 -4.09532 
540 1 540 0.799009 0.799936 0 -3.75075 
541 1 541 0.798982 0.839954 0 -3.7232 
542 1 542 0.798949 0.879976 0 -3.71522 
543 1 543 0.798916 0.920001 0 -4.25796 
544 1 544 0.798884 0.960031 0 -4.53238 
545 1 545 0.798848 1.00007 0 -4.41811 
546 1 546 0.84 0 0 0 
547 1 547 0.83991 0.0399766 0 0.0608562 
548 1 548 0.839833 0.0799631 0 -0.39491 
549 1 549 0.839768 0.119956 0 -1.0299 
550 1 550 0.839711 0.159954 0 -0.841946 
551 1 551 0.839654 0.199951 0 -0.502236 
552 1 552 0.839599 0.23995 0 -0.610562 
553 1 553 0.839536 0.279949 0 -1.14364 
554 1 554 0.839481 0.319951 0 -2.08385 
555 1 555 0.839426 0.359949 0 -2.68649 
556 1 556 0.839362 0.399946 0 -3.18511 
557 1 557 0.839304 0.439942 0 -3.41153 
558 1 558 0.839242 0.479937 0 -3.66685 
559 1 559 0.839194 0.519933 0 -3.98762 
560 1 560 0.839147 0.559929 0 -4.2065 
561 1 561 0.839113 0.599926 0 -4.47031 
562 1 562 0.839083 0.639925 0 -4.47067 
563 1 563 0.839053 0.67993 0 -4.57885 
564 1 564 0.839024 0.719938 0 -4.61402 
565 1 565 0.838994 0.759953 0 -4.20266 
566 1 566 0.838957 0.79997 0 -4.00517 
567 1 567 0.838925 0.839989 0 -3.98216 
568 1 568 0.838885 0.880013 0 -4.26202 
569 1 569 0.83885 0.920038 0 -4.92397 
570 1 570 0.838807 0.960069 0 -4.99005 
571 1 571 0.838761 1.00011 0 -4.84449 
572 1 572 0.88 0 0 0 
573 1 573 0.879897 0.0399754 0 0.24862 
574 1 574 0.879809 0.0799607 0 -0.362866 
575 1 575 0.879738 0.119953 0 -1.19174 
576 1 576 0.879677 0.159952 0 -0.871612 
577 1 577 0.879618 0.199953 0 -0.327103 
578 1 578 0.87956 0.239958 0 -0.340186 
579 1 579 0.879496 0.279963 0 -0.988438 
580 1 580 0.879442 0.31997 0 -2.12577 
581 1 581 0.879388 0.359974 0 -2.91931 
582 1 582 0.879327 0.399977 0 -3.43904 
583 1 583 0.879267 0.439976 0 -3.57495 
584 1 584 0.879203 0.479974 0 -3.92595 
585 1 585 0.879154 0.51997 0 -4.31173 
586 1 586 0.879102 0.559966 0 -4.60203 
587 1 587 0.879062 0.599963 0 -4.78726 
588 1 588 0.87902 0.639961 0 -4.62437 
589 1 589 0.878985 0.679964 0 -4.67032 
590 1 590 0.878953 0.719972 0 -4.54639 
591 1 591 0.878919 0.759988 0 -4.19285 
592 1 592 0.878885 0.800008 0 -4.10369 
593 1 593 0.878854 0.840029 0 -4.09271 
594 1 594 0.878812 0.880055 0 -4.68689 
595 1 595 0.878776 0.920082 0 -5.4255 
596 1 596 0.878726 0.960115 0 -5.42263 
597 1 597 0.878672 1.00015 0 -5.38867 
598 1 598 0.92 0 0 0 
599 1 599 0.919889 0.039975 0 0.341731 
600 1 600 0.91979 0.0799577 0 -0.315535 
601 1 601 0.919706 0.119949 0 -1.24091 
602 1 602 0.91964 0.159948 0 -1.03275 
603 1 603 0.919578 0.199952 0 -0.515639 
604 1 604 0.919516 0.239962 0 -0.439041 
605 1 605 0.919451 0.279971 0 -1.07458 
606 1 606 0.919397 0.319982 0 -2.22281 
607 1 607 0.919342 0.359991 0 -3.11423 
608 1 608 0.919284 0.399998 0 -3.69759 
609 1 609 0.919226 0.440001 0 -3.89105 
610 1 610 0.919165 0.480001 0 -4.40515 
611 1 611 0.919117 0.519998 0 -4.86308 
612 1 612 0.919065 0.559996 0 -5.21208 
613 1 613 0.919031 0.599994 0 -5.28395 
614 1 614 0.918991 0.639994 0 -4.96993 
615 1 615 0.918952 0.68 0 -4.82752 
616 1 616 0.918909 0.720011 0 -4.38653 
617 1 617 0.918866 0.760029 0 -3.95858 
618 1 618 0.918828 0.800051 0 -3.86352 
619 1 619 0.91879 0.840075 0 -3.95693 
620 1 620 0.918742 0.880104 0 -4.84256 
621 1 621 0.918702 0.920134 0 -5.58089 
622 1 622 0.918643 0.960171 0 -5.68241 
623 1 623 0.918583 1.00021 0 -5.88505 
624 1 624 0.96 0 0 0 
625 1 625 0.95988 0.0399755 0 0.226579 
626 1 626 0.959773 0.0799547 0 -0.473562 
627 1 627 0.95968 0.119944 0 -1.36614 
628 1 628 0.959603 0.159943 0 -1.22725 
629 1 629 0.959533 0.19995 0 -0.73995 
630 1 630 0.959467 0.239962 0 -0.60658 
631 1 631 0.959399 0.279975 0 -1.22079 
632 1 632 0.959342 0.319989 0 -2.37816 
633 1 633 0.959288 0.360002 0 -3.42286 
634 1 634 0.959233 0.400014 0 -4.09145 
635 1 635 0.959174 0.440021 0 -4.35081 
636 1 636 0.959114 0.480024 0 -4.96782 
637 1 637 0.959064 0.520024 0 -5.46086 
638 1 638 0.95901 0.560024 0 -5.80527 
639 1 639 0.958969 0.600024 0 -5.68882 
640 1 640 0.958919 0.640027 0 -5.18595 
641 1 641 0.958876 0.680034 0 -4.70741 
642 1 642 0.95883 0.720047 0 -3.94115 
643 1 643 0.958786 0.760068 0 -3.49237 
644 1 644 0.958746 0.800093 0 -3.40113 
645 1 645 0.958708 0.840123 0 -3.67311 
646 1 646 0.958662 0.880156 0 -4.72787 
647 1 647 0.958619 0.920192 0 -5.45523 
648 1 648 0.958555 0.960232 0 -5.87334 
649 1 649 0.958493 1.00027 0 -6.38579 
650 1 650 1 0 0 0 
651 1 651 0.999879 0.0399746 0 -0.00226272 
652 1 652 0.999761 0.0799523 0 -0.641564 
653 1 653 0.999652 0.11994 0 -1.38076 
654 1 654 0.999564 0.159938 0 -1.38798 
655 1 655 0.999486 0.199944 0 -1.1318 
656 1 656 0.999413 0.239956 0 -1.08178 
657 1 657 0.999345 0.27997 0 -1.58221 
658 1 658 0.999286 0.319986 0 -2.53909 
659 1 659 0.999229 0.360001 0 -3.53956 
660 1 660 0.999176 0.400016 0 -4.21128 
661 1 661 0.999121 0.440026 0 -4.55763 
662 1 662 0.999065 0.480032 0 -5.22713 
663 1 663 0.999016 0.520035 0 -5.73268 
664 1 664 0.998964 0.560039 0 -6.09615 
665 1 665 0.998927 0.600043 0 -5.9211 
666 1 666 0.99888 0.640053 0 -5.363 
667 1 667 0.998835 0.680065 0 -4.5594 
668 1 668 0.998778 0.720084 0 -3.54296 
669 1 669 0.998728 0.760109 0 -3.03522 
670 1 670 0.998682 0.800138 0 -2.85462 
671 1 671 0.998635 0.840173 0 -3.26799 
672 1 672 0.998584 0.880211 0 -4.37607 
673 1 673 0.998533 0.920253 0 -5.16925 
674 1 674 0.998467 0.960297 0 -5.96987 
675 1 675 0.998406 1.00034 0 -6.71365 
676 1 676 1.04 0 0 0 
677 1 677 1.03987 0.039974 0 -0.374484 
678 1 678 1.03975 0.079951 0 -0.915735 
679 1 679 1.03963 0.119937 0 -1.40743 
680 1 680 1.03953 0.159931 0 -1.58712 
681 1 681 1.03944 0.199937 0 -1.57153 
682 1 682 1.03936 0.239948 0 -1.48088 
683 1 683 1.03929 0.279963 0 -1.70648 
684 1 684 1.03923 0.319978 0 -2.34866 
685 1 685 1.03917 0.359995 0 -3.22863 
686 1 686 1.03911 0.400012 0 -3.92196 
687 1 687 1.03906 0.440026 0 -4.42281 
688 1 688 1.03901 0.480037 0 -5.2007 
689 1 689 1.03895 0.520045 0 -5.76077 
690 1 690 1.0389 0.560053 0 -6.10431 
691 1 691 1.03885 0.600062 0 -5.90733 
692 1 692 1.0388 0.640076 0 -5.3637 
693 1 693 1.03875 0.680093 0 -4.29891 
694 1 694 1.03869 0.720117 0 -3.1296 
695 1 695 1.03864 0.760146 0 -2.56817 
696 1 696 1.03859 0.800181 0 -2.3879 
697 1 697 1.03854 0.840222 0 -3.00846 
698 1 698 1.03849 0.880265 0 -4.09412 
699 1 699 1.03844 0.920312 0 -4.95485 
700 1 700 1.03838 0.960359 0 -5.97665 
701 1 701 1.03832 1.0004 0 -6.75762 
702 1 702 1.08 0 0 0 
703 1 703 1.07987 0.0399738 0 -0.729934 
704 1 704 1.07974 0.0799508 0 -1.16053 
705 1 705 1.07961 0.119935 0 -1.35775 
706 1 706 1.07949 0.159928 0 -1.65086 
707 1 707 1.0794 0.199931 0 -1.86233 
708 1 708 1.07931 0.239939 0 -1.77499 
709 1 709 1.07923 0.279952 0 -1.7571 
710 1 710 1.07917 0.319966 0 -2.03878 
711 1 711 1.0791 0.359984 0 -2.70956 
712 1 712 1.07905 0.400002 0 -3.40351 
713 1 713 1.079 0.440019 0 -4.02499 
714 1 714 1.07895 0.480032 0 -4.81974 
715 1 715 1.0789 0.520045 0 -5.39328 
716 1 716 1.07885 0.560058 0 -5.74698 
717 1 717 1.0788 0.600074 0 -5.61871 
718 1 718 1.07875 0.640097 0 -5.18647 
719 1 719 1.0787 0.680122 0 -4.09288 
720 1 720 1.07863 0.720154 0 -2.99709 
721 1 721 1.07858 0.760188 0 -2.44099 
722 1 722 1.07852 0.800229 0 -2.30882 
723 1 723 1.07847 0.840272 0 -3.0154 
724 1 724 1.07841 0.88032 0 -3.9518 
725 1 725 1.07835 0.92037 0 -4.89481 
726 1 726 1.07829 0.960418 0 -5.9293 
727 1 727 1.07823 1.00046 0 -6.5429 
728 1 728 1.12 0 0 0 
729 1 729 1.11987 0.0399744 0 -0.920554 
730 1 730 1.11973 0.0799521 0 -1.19971 
731 1 731 1.11959 0.119936 0 -1.18243 
732 1 732 1.11946 0.159926 0 -1.64857 
733 1 733 1.11936 0.199926 0 -2.13389 
734 1 734 1.11926 0.239932 0 -2.10663 
735 1 735 1.11918 0.279944 0 -1.84609 
736 1 736 1.11911 0.319958 0 -1.70187 
737 1 737 1.11905 0.359977 0 -2.04115 
738 1 738 1.11899 0.399996 0 -2.62976 
739 1 739 1.11894 0.440017 0 -3.32489 
740 1 740 1.11889 0.480036 0 -4.17088 
741 1 741 1.11883 0.520054 0 -4.81495 
742 1 742 1.11877 0.560073 0 -5.24792 
743 1 743 1.11872 0.600095 0 -5.29789 
744 1 744 1.11866 0.640123 0 -5.05981 
745 1 745 1.1186 0.680153 0 -4.09519 
746 1 746 1.11854 0.72019 0 -3.15859 
747 1 747 1.11848 0.760229 0 -2.61755 
748 1 748 1.11842 0.800274 0 -2.56872 
749 1 749 1.11837 0.840321 0 -3.27833 
750 1 750 1.11831 0.88037 0 -4.06217 
751 1 751 1.11825 0.920421 0 -5.04881 
752 1 752 1.11819 0.960469 0 -5.83478 
753 1 753 1.11814 1.00051 0 -6.12547 
754 1 754 1.16 0 0 0 
755 1 755 1.15987 0.0399755 0 -0.933409 
756 1 756 1.15972 0.0799557 0 -1.10585 
757 1 757 1.15957 0.119939 0 -0.996694 
758 1 758 1.15944 0.159928 0 -1.59867 
759 1 759 1.15932 0.199926 0 -2.28511 
760 1 760 1.15922 0.239929 0 -2.34294 
761 1 761 1.15914 0.27994 0 -1.93772 
762 1 762 1.15906 0.319954 0 -1.46648 
763 1 763 1.15899 0.359973 0 -1.52453 
764 1 764 1.15893 0.399994 0 -2.04035 
765 1 765 1.15888 0.440017 0 -2.79977 
766 1 766 1.15882 0.48004 0 -3.66078 
767 1 767 1.15877 0.520063 0 -4.31112 
768 1 768 1.15871 0.560088 0 -4.79356 
769 1 769 1.15865 0.600117 0 -5.0034 
770 1 770 1.1586 0.640152 0 -4.93435 
771 1 771 1.15854 0.680192 0 -4.23901 
772 1 772 1.15847 0.720235 0 -3.58727 
773 1 773 1.15841 0.760277 0 -3.1618 
774 1 774 1.15834 0.800324 0 -3.24495 
775 1 775 1.15828 0.84037 0 -3.8653 
776 1 776 1.15821 0.88042 0 -4.46197 