ITEM: TIMESTEP
0
ITEM: NUMBER OF ATOMS
7127
ITEM: BOX BOUNDS sm sm sm
0 4
0 2
0 0
ITEM: ATOMS id type tag x y z vx 
0 1 0 0 0 0 0 
1 1 1 0 0.04 0 0 
2 1 2 0 0.08 0 0 
3 1 3 0 0.12 0 0 
4 1 4 0 0.16 0 0 
5 1 5 0 0.2 0 0 
6 1 6 0 0.24 0 0 
7 1 7 0 0.28 0 0 
8 1 8 0 0.32 0 0 
9 1 9 0 0.36 0 0 
10 1 10 0 0.4 0 0 
11 1 11 0 0.44 0 0 
12 1 12 0 0.48 0 0 
13 1 13 0 0.52 0 0 
14 1 14 0 0.56 0 0 
15 1 15 0 0.6 0 0 
16 1 16 0 0.64 0 0 
17 1 17 0 0.68 0 0 
18 1 18 0 0.72 0 0 
19 1 19 0 0.76 0 0 
20 1 20 0 0.8 0 0 
21 1 21 0 0.84 0 0 
22 1 22 0 0.88 0 0 
23 1 23 0 0.92 0 0 
24 1 24 0 0.96 0 0 
25 1 25 0 1 0 0 
26 1 26 0.04 0 0 0 
27 1 27 0.0399973 0.0399964 0 0.335051 
28 1 28 0.0399978 0.079996 0 0.499533 
29 1 29 0.0399984 0.119996 0 0.423483 
30 1 30 0.0399993 0.159997 0 0.232142 
31 1 31 0.039999 0.199997 0 0.0611804 
32 1 32 0.0399993 0.239998 0 -0.0611412 
33 1 33 0.0399993 0.279997 0 -0.0270206 
34 1 34 0.0399975 0.319998 0 0.0862685 
35 1 35 0.0399964 0.359997 0 0.19377 
36 1 36 0.039992 0.399998 0 0.246615 
37 1 37 0.0399894 0.439999 0 0.259787 
38 1 38 0.0399838 0.480002 0 0.167003 
39 1 39 0.0399823 0.520004 0 0.0545067 
40 1 40 0.0399776 0.560008 0 0.00561789 
41 1 41 0.0399758 0.600011 0 -0.0848663 
42 1 42 0.0399734 0.640015 0 -0.0777572 
43 1 43 0.0399719 0.680018 0 -0.0428541 
44 1 44 0.0399677 0.720024 0 -0.193826 
45 1 45 0.0399681 0.760028 0 -0.198225 
46 1 46 0.0399592 0.800037 0 -0.393316 
47 1 47 0.0399607 0.840042 0 -0.589552 
48 1 48 0.0399522 0.880054 0 -0.554365 
49 1 49 0.0399464 0.920063 0 -0.472658 
50 1 50 0.039935 0.960081 0 -0.332724 
51 1 51 0.0398667 1.00014 0 -0.372269 
52 1 52 0.08 0 0 0 
53 1 53 0.0799977 0.0399974 0 0.593101 
54 1 54 0.0799972 0.0799957 0 0.840458 
55 1 55 0.079997 0.119995 0 0.719784 
56 1 56 0.0799966 0.159995 0 0.483284 
57 1 57 0.0799958 0.199995 0 0.210903 
58 1 58 0.0799961 0.239996 0 -0.03272 
59 1 59 0.0799953 0.279996 0 -0.0493612 
60 1 60 0.0799934 0.319996 0 0.0862806 
61 1 61 0.0799895 0.359997 0 0.311615 
62 1 62 0.0799822 0.399998 0 0.46044 
63 1 63 0.0799748 0.440002 0 0.500026 
64 1 64 0.0799655 0.480007 0 0.35867 
65 1 65 0.0799585 0.520014 0 0.141412 
66 1 66 0.0799527 0.56002 0 0.0278442 
67 1 67 0.0799468 0.600029 0 -0.0902933 
68 1 68 0.0799439 0.640037 0 -0.090117 
69 1 69 0.0799363 0.680046 0 -0.0887812 
70 1 70 0.0799317 0.720054 0 -0.328331 
71 1 71 0.079926 0.760066 0 -0.409366 
72 1 72 0.0799158 0.800078 0 -0.691267 
73 1 73 0.0799097 0.840094 0 -0.946259 
74 1 74 0.0798965 0.880111 0 -0.975184 
75 1 75 0.0798851 0.920133 0 -0.998388 
76 1 76 0.0798463 0.960172 0 -0.714998 
77 1 77 0.0797922 1.0002 0 -0.572762 
78 1 78 0.12 0 0 0 
79 1 79 0.119998 0.039999 0 0.705956 
80 1 80 0.119997 0.0799978 0 0.964638 
81 1 81 0.119994 0.119995 0 0.871893 
82 1 82 0.119993 0.159995 0 0.655116 
83 1 83 0.119991 0.199994 0 0.31279 
84 1 84 0.11999 0.239995 0 -0.00377074 
85 1 85 0.119989 0.279995 0 -0.0877237 
86 1 86 0.119985 0.319996 0 0.0789253 
87 1 87 0.119979 0.359998 0 0.449366 
88 1 88 0.119967 0.400002 0 0.699479 
89 1 89 0.119957 0.440008 0 0.728409 
90 1 90 0.119943 0.480016 0 0.526253 
91 1 91 0.119933 0.520026 0 0.240566 
92 1 92 0.119921 0.560038 0 0.0675493 
93 1 93 0.119913 0.60005 0 -0.0370236 
94 1 94 0.119905 0.640064 0 -0.0448931 
95 1 95 0.119899 0.680076 0 -0.110118 
96 1 96 0.119889 0.720092 0 -0.397356 
97 1 97 0.11988 0.760107 0 -0.59835 
98 1 98 0.119865 0.800127 0 -0.969381 
99 1 99 0.119856 0.840145 0 -1.20247 
100 1 100 0.119837 0.880172 0 -1.30115 
101 1 101 0.119813 0.920201 0 -1.41578 
102 1 102 0.119775 0.96023 0 -1.12578 
103 1 103 0.119724 1.00026 0 -0.964209 
104 1 104 0.16 0 0 0 
105 1 105 0.16 0.0400008 0 0.659274 
106 1 106 0.159997 0.0799985 0 0.948103 
107 1 107 0.159992 0.119997 0 0.922815 
108 1 108 0.159988 0.159996 0 0.691145 
109 1 109 0.159983 0.199995 0 0.286087 
110 1 110 0.15998 0.239995 0 -0.0542655 
111 1 111 0.159977 0.279996 0 -0.130303 
112 1 112 0.159971 0.319999 0 0.119099 
113 1 113 0.159963 0.360004 0 0.570873 
114 1 114 0.159949 0.400011 0 0.868204 
115 1 115 0.159934 0.44002 0 0.914587 
116 1 116 0.159916 0.48003 0 0.667488 
117 1 117 0.1599 0.520044 0 0.331162 
118 1 118 0.159885 0.560058 0 0.0733709 
119 1 119 0.159875 0.600073 0 -0.0587923 
120 1 120 0.159864 0.640089 0 -0.094292 
121 1 121 0.159851 0.680107 0 -0.163531 
122 1 122 0.159837 0.720125 0 -0.407146 
123 1 123 0.159824 0.760147 0 -0.693009 
124 1 124 0.159808 0.80017 0 -1.09219 
125 1 125 0.159793 0.840197 0 -1.35384 
126 1 126 0.159769 0.880226 0 -1.5724 
127 1 127 0.159747 0.920257 0 -1.67807 
128 1 128 0.159708 0.960291 0 -1.49764 
129 1 129 0.15966 1.00032 0 -1.49904 
130 1 130 0.2 0 0 0 
131 1 131 0.2 0.0400009 0 0.39225 
132 1 132 0.199996 0.0799996 0 0.684543 
133 1 133 0.199988 0.119998 0 0.783635 
134 1 134 0.199981 0.159996 0 0.610348 
135 1 135 0.199973 0.199995 0 0.252242 
136 1 136 0.199968 0.239996 0 -0.0197213 
137 1 137 0.199962 0.28 0 -0.0559476 
138 1 138 0.199954 0.320006 0 0.229482 
139 1 139 0.199943 0.360013 0 0.695151 
140 1 140 0.199927 0.400023 0 0.985779 
141 1 141 0.199907 0.440034 0 1.03672 
142 1 142 0.199886 0.480048 0 0.73444 
143 1 143 0.199867 0.520063 0 0.354778 
144 1 144 0.199847 0.560079 0 0.0582135 
145 1 145 0.199831 0.600097 0 -0.0586564 
146 1 146 0.199815 0.640116 0 -0.125459 
147 1 147 0.199802 0.680137 0 -0.229515 
148 1 148 0.199784 0.720161 0 -0.430156 
149 1 149 0.199766 0.760186 0 -0.762702 
150 1 150 0.199747 0.800214 0 -1.07926 
151 1 151 0.199729 0.840244 0 -1.33597 
152 1 152 0.199704 0.880277 0 -1.70615 
153 1 153 0.199679 0.92031 0 -1.89276 
154 1 154 0.199641 0.960343 0 -1.95594 
155 1 155 0.199601 1.00037 0 -2.15402 
156 1 156 0.24 0 0 0 
157 1 157 0.239999 0.0400004 0 0.0038679 
158 1 158 0.239993 0.0799998 0 0.265891 
159 1 159 0.239984 0.119999 0 0.535746 
160 1 160 0.239973 0.159998 0 0.528489 
161 1 161 0.239962 0.199998 0 0.327431 
162 1 162 0.239952 0.240001 0 0.137847 
163 1 163 0.239943 0.280007 0 0.0682709 
164 1 164 0.239933 0.320016 0 0.319043 
165 1 165 0.239919 0.360027 0 0.760268 
166 1 166 0.2399 0.40004 0 1.03274 
167 1 167 0.239878 0.440054 0 1.09111 
168 1 168 0.239853 0.480069 0 0.788601 
169 1 169 0.239829 0.520085 0 0.448316 
170 1 170 0.239805 0.560101 0 0.12361 
171 1 171 0.239787 0.600121 0 -0.0372708 
172 1 172 0.239765 0.640141 0 -0.154559 
173 1 173 0.239744 0.680165 0 -0.306799 
174 1 174 0.23972 0.720191 0 -0.476671 
175 1 175 0.2397 0.760221 0 -0.810565 
176 1 176 0.239679 0.800252 0 -1.08837 
177 1 177 0.239656 0.840287 0 -1.38041 
178 1 178 0.239633 0.880322 0 -1.81092 
179 1 179 0.239611 0.920356 0 -2.10788 
180 1 180 0.23958 0.960389 0 -2.50505 
181 1 181 0.239545 1.00042 0 -2.90041 
182 1 182 0.28 0 0 0 
183 1 183 0.279996 0.0399986 0 -0.249825 
184 1 184 0.279987 0.0799992 0 -0.0273347 
185 1 185 0.279976 0.12 0 0.317973 
186 1 186 0.279962 0.16 0 0.444444 
187 1 187 0.279948 0.200002 0 0.364411 
188 1 188 0.279935 0.240007 0 0.239052 
189 1 189 0.279922 0.280016 0 0.217211 
190 1 190 0.279909 0.320028 0 0.471904 
191 1 191 0.279893 0.360043 0 0.812519 
192 1 192 0.279873 0.400058 0 1.01548 
193 1 193 0.279847 0.440074 0 1.10936 
194 1 194 0.27982 0.480089 0 0.846486 
195 1 195 0.279793 0.520106 0 0.594336 
196 1 196 0.279763 0.560125 0 0.272008 
197 1 197 0.279736 0.600145 0 0.0208433 
198 1 198 0.279709 0.640169 0 -0.160861 
199 1 199 0.279688 0.680196 0 -0.370408 
200 1 200 0.279661 0.720226 0 -0.574723 
201 1 201 0.279635 0.760258 0 -0.898431 
202 1 202 0.279611 0.800291 0 -1.16613 
203 1 203 0.279589 0.840327 0 -1.54764 
204 1 204 0.279568 0.880362 0 -1.98352 
205 1 205 0.279544 0.920396 0 -2.34959 
206 1 206 0.279516 0.960429 0 -2.97804 
207 1 207 0.279489 1.00046 0 -3.46716 
208 1 208 0.32 0 0 0 
209 1 209 0.31999 0.0399975 0 -0.406809 
210 1 210 0.319979 0.0799987 0 -0.243847 
211 1 211 0.319966 0.12 0 0.134609 
212 1 212 0.31995 0.160003 0 0.394073 
213 1 213 0.319933 0.200007 0 0.449707 
214 1 214 0.319915 0.240014 0 0.41385 
215 1 215 0.319898 0.280026 0 0.406096 
216 1 216 0.319883 0.320041 0 0.537669 
217 1 217 0.319864 0.360058 0 0.72536 
218 1 218 0.319842 0.400076 0 0.874716 
219 1 219 0.319814 0.440094 0 1.05294 
220 1 220 0.319783 0.480112 0 0.915232 
221 1 221 0.319751 0.52013 0 0.786654 
222 1 222 0.319717 0.56015 0 0.542393 
223 1 223 0.319688 0.600171 0 0.252016 
224 1 224 0.319654 0.640197 0 -0.0619308 
225 1 225 0.319622 0.680225 0 -0.439968 
226 1 226 0.319589 0.720256 0 -0.788134 
227 1 227 0.319565 0.76029 0 -1.12943 
228 1 228 0.319538 0.800324 0 -1.38631 
229 1 229 0.319515 0.84036 0 -1.83727 
230 1 230 0.319496 0.880394 0 -2.27403 
231 1 231 0.319477 0.920428 0 -2.72375 
232 1 232 0.319455 0.96046 0 -3.44465 
233 1 233 0.319431 1.00049 0 -3.90668 
234 1 234 0.36 0 0 0 
235 1 235 0.359984 0.0399961 0 -0.341196 
236 1 236 0.359969 0.0799971 0 -0.217741 
237 1 237 0.359954 0.12 0 0.0839131 
238 1 238 0.359935 0.160005 0 0.356474 
239 1 239 0.359915 0.200012 0 0.524947 
240 1 240 0.359893 0.240021 0 0.555191 
241 1 241 0.359874 0.280036 0 0.48928 
242 1 242 0.359854 0.320053 0 0.473046 
243 1 243 0.359832 0.360072 0 0.574941 
244 1 244 0.359808 0.400092 0 0.719827 
245 1 245 0.359778 0.440112 0 0.942059 
246 1 246 0.359745 0.480132 0 0.950004 
247 1 247 0.359709 0.520152 0 0.937127 
248 1 248 0.359669 0.560174 0 0.702884 
249 1 249 0.35963 0.600199 0 0.348273 
250 1 250 0.359592 0.640227 0 -0.114301 
251 1 251 0.359562 0.680258 0 -0.619125 
252 1 252 0.359528 0.720289 0 -1.06354 
253 1 253 0.359498 0.760323 0 -1.46554 
254 1 254 0.359471 0.800357 0 -1.74096 
255 1 255 0.359451 0.84039 0 -2.19109 
256 1 256 0.359431 0.880423 0 -2.61149 
257 1 257 0.359409 0.920455 0 -3.13406 
258 1 258 0.359389 0.960487 0 -3.82624 
259 1 259 0.359369 1.00052 0 -4.1895 
260 1 260 0.4 0 0 0 
261 1 261 0.399976 0.0399948 0 -0.065925 
262 1 262 0.399957 0.0799954 0 -0.000230258 
263 1 263 0.399939 0.12 0 0.128033 
264 1 264 0.399918 0.160006 0 0.338288 
265 1 265 0.399895 0.200016 0 0.559597 
266 1 266 0.39987 0.240028 0 0.593219 
267 1 267 0.399844 0.280045 0 0.493404 
268 1 268 0.399821 0.320064 0 0.394911 
269 1 269 0.399796 0.360086 0 0.380945 
270 1 270 0.399768 0.400108 0 0.467264 
271 1 271 0.399736 0.440131 0 0.681115 
272 1 272 0.399698 0.480153 0 0.800136 
273 1 273 0.399657 0.520175 0 0.910462 
274 1 274 0.399614 0.560199 0 0.717392 
275 1 275 0.399575 0.600224 0 0.331747 
276 1 276 0.399531 0.640252 0 -0.263927 
277 1 277 0.399491 0.680283 0 -0.876153 
278 1 278 0.399452 0.720315 0 -1.38463 
279 1 279 0.399426 0.760348 0 -1.8597 
280 1 280 0.399399 0.800382 0 -2.16509 
281 1 281 0.399377 0.840413 0 -2.56205 
282 1 282 0.399358 0.880446 0 -2.97444 
283 1 283 0.399342 0.920478 0 -3.51623 
284 1 284 0.399323 0.960509 0 -4.05205 
285 1 285 0.399302 1.00054 0 -4.28402 
286 1 286 0.44 0 0 0 
287 1 287 0.43997 0.0399939 0 0.213855 
288 1 288 0.439945 0.0799942 0 0.199333 
289 1 289 0.439923 0.119999 0 0.175386 
290 1 290 0.439899 0.160008 0 0.347223 
291 1 291 0.439872 0.200019 0 0.594318 
292 1 292 0.439842 0.240034 0 0.609089 
293 1 293 0.439811 0.280052 0 0.469291 
294 1 294 0.439782 0.320074 0 0.262278 
295 1 295 0.439753 0.360098 0 0.092187 
296 1 296 0.439723 0.400122 0 0.101772 
297 1 297 0.439689 0.440147 0 0.354196 
298 1 298 0.439649 0.480171 0 0.60733 
299 1 299 0.439606 0.520195 0 0.765841 
300 1 300 0.439559 0.560221 0 0.587851 
301 1 301 0.439509 0.600248 0 0.202855 
302 1 302 0.439463 0.640277 0 -0.498283 
303 1 303 0.439428 0.680309 0 -1.17681 
304 1 304 0.439391 0.720341 0 -1.68763 
305 1 305 0.43936 0.760374 0 -2.15008 
306 1 306 0.439333 0.800406 0 -2.41398 
307 1 307 0.439314 0.840437 0 -2.75313 
308 1 308 0.439293 0.880469 0 -3.23634 
309 1 309 0.439273 0.920499 0 -3.81981 
310 1 310 0.439251 0.960532 0 -4.22726 
311 1 311 0.439228 1.00057 0 -4.38879 
312 1 312 0.48 0 0 0 
313 1 313 0.479963 0.0399943 0 0.528695 
314 1 314 0.479934 0.0799937 0 0.493271 
315 1 315 0.479906 0.119999 0 0.296605 
316 1 316 0.479877 0.160009 0 0.330709 
317 1 317 0.479845 0.200023 0 0.526546 
318 1 318 0.47981 0.24004 0 0.546435 
319 1 319 0.479773 0.28006 0 0.406607 
320 1 320 0.479739 0.320083 0 0.143441 
321 1 321 0.479705 0.360109 0 -0.0280204 
322 1 322 0.47967 0.400135 0 -0.0163526 
323 1 323 0.479633 0.440162 0 0.186006 
324 1 324 0.479591 0.480188 0 0.431453 
325 1 325 0.479543 0.520215 0 0.500553 
326 1 326 0.479496 0.560241 0 0.265621 
327 1 327 0.47945 0.600268 0 -0.0741324 
328 1 328 0.479399 0.640297 0 -0.760466 
329 1 329 0.479354 0.680327 0 -1.4166 
330 1 330 0.479312 0.72036 0 -1.87504 
331 1 331 0.479286 0.760392 0 -2.28662 
332 1 332 0.47926 0.800425 0 -2.50376 
333 1 333 0.479238 0.840456 0 -2.76972 
334 1 334 0.479218 0.880489 0 -3.26108 
335 1 335 0.479203 0.92052 0 -3.81263 
336 1 336 0.479178 0.960554 0 -4.18176 
337 1 337 0.479151 1.00059 0 -4.38936 
338 1 338 0.52 0 0 0 
339 1 339 0.519959 0.0399946 0 0.667486 
340 1 340 0.519921 0.0799936 0 0.631365 
341 1 341 0.519886 0.119999 0 0.378479 
342 1 342 0.519852 0.16001 0 0.3511 
343 1 343 0.519814 0.200026 0 0.48438 
344 1 344 0.519773 0.240044 0 0.475541 
345 1 345 0.519731 0.280066 0 0.38147 
346 1 346 0.51969 0.32009 0 0.13016 
347 1 347 0.519651 0.360116 0 -0.0390038 
348 1 348 0.519613 0.400144 0 -0.0536225 
349 1 349 0.519574 0.440173 0 0.0443443 
350 1 350 0.519532 0.480201 0 0.257345 
351 1 351 0.519485 0.52023 0 0.339791 
352 1 352 0.519434 0.560258 0 0.110887 
353 1 353 0.51938 0.600288 0 -0.246883 
354 1 354 0.51933 0.640319 0 -0.899808 
355 1 355 0.519292 0.68035 0 -1.45095 
356 1 356 0.519253 0.720382 0 -1.80095 
357 1 357 0.51922 0.760414 0 -2.1199 
358 1 358 0.519193 0.800447 0 -2.30121 
359 1 359 0.519174 0.840479 0 -2.53833 
360 1 360 0.519151 0.880511 0 -3.07638 
361 1 361 0.519129 0.920544 0 -3.66101 
362 1 362 0.519099 0.960581 0 -4.11575 
363 1 363 0.519071 1.00062 0 -4.4439 
364 1 364 0.56 0 0 0 
365 1 365 0.559954 0.0399952 0 0.633074 
366 1 366 0.55991 0.0799941 0 0.629229 
367 1 367 0.559866 0.119999 0 0.407206 
368 1 368 0.559823 0.160011 0 0.338511 
369 1 369 0.559779 0.200028 0 0.432037 
370 1 370 0.559733 0.240048 0 0.432032 
371 1 371 0.559684 0.28007 0 0.421174 
372 1 372 0.559638 0.320095 0 0.264957 
373 1 373 0.559595 0.360123 0 0.165964 
374 1 374 0.559553 0.400152 0 0.209999 
375 1 375 0.559511 0.440183 0 0.296669 
376 1 376 0.559465 0.480213 0 0.39099 
377 1 377 0.559415 0.520244 0 0.315665 
378 1 378 0.559366 0.560274 0 -0.0113727 
379 1 379 0.559317 0.600304 0 -0.397152 
380 1 380 0.559264 0.640334 0 -0.931809 
381 1 381 0.559214 0.680364 0 -1.34954 
382 1 382 0.559172 0.720398 0 -1.60915 
383 1 383 0.559143 0.76043 0 -1.81097 
384 1 384 0.559117 0.800464 0 -1.96032 
385 1 385 0.559094 0.840498 0 -2.17141 
386 1 386 0.559071 0.880534 0 -2.69742 
387 1 387 0.559053 0.92057 0 -3.31887 
388 1 388 0.559021 0.960608 0 -3.92454 
389 1 389 0.55899 1.00065 0 -4.39218 
390 1 390 0.6 0 0 0 
391 1 391 0.599949 0.0399948 0 0.507804 
392 1 392 0.599895 0.0799936 0 0.596179 
393 1 393 0.599842 0.119999 0 0.489236 
394 1 394 0.599793 0.160011 0 0.376305 
395 1 395 0.599742 0.200028 0 0.383915 
396 1 396 0.59969 0.240048 0 0.392679 
397 1 397 0.599636 0.280072 0 0.489547 
398 1 398 0.599585 0.320097 0 0.50742 
399 1 399 0.599536 0.360125 0 0.562935 
400 1 400 0.59949 0.400155 0 0.627546 
401 1 401 0.599446 0.440187 0 0.624091 
402 1 402 0.5994 0.48022 0 0.549106 
403 1 403 0.599353 0.520253 0 0.32856 
404 1 404 0.5993 0.560286 0 -0.0566802 
405 1 405 0.599244 0.60032 0 -0.45605 
406 1 406 0.599192 0.640353 0 -0.854723 
407 1 407 0.599151 0.680386 0 -1.15347 
408 1 408 0.599111 0.720419 0 -1.33249 
409 1 409 0.599075 0.760452 0 -1.41359 
410 1 410 0.599046 0.800487 0 -1.56139 
411 1 411 0.599026 0.840522 0 -1.7897 
412 1 412 0.598999 0.880558 0 -2.32301 
413 1 413 0.598973 0.920597 0 -2.99983 
414 1 414 0.598939 0.960636 0 -3.71952 
415 1 415 0.598912 1.00067 0 -4.26831 
416 1 416 0.64 0 0 0 
417 1 417 0.639942 0.0399941 0 0.269504 
418 1 418 0.639882 0.0799927 0 0.432447 
419 1 419 0.63982 0.119998 0 0.506866 
420 1 420 0.63976 0.160009 0 0.433911 
421 1 421 0.639703 0.200026 0 0.391842 
422 1 422 0.639646 0.240047 0 0.427465 
423 1 423 0.639587 0.280071 0 0.630338 
424 1 424 0.639532 0.320098 0 0.790631 
425 1 425 0.639479 0.360127 0 0.970409 
426 1 426 0.639429 0.400158 0 1.06422 
427 1 427 0.639381 0.440192 0 1.00914 
428 1 428 0.63933 0.480226 0 0.762813 
429 1 429 0.639278 0.520262 0 0.371948 
430 1 430 0.639226 0.560297 0 -0.0865456 
431 1 431 0.639176 0.600331 0 -0.517306 
432 1 432 0.639122 0.640364 0 -0.809429 
433 1 433 0.639067 0.680397 0 -0.989871 
434 1 434 0.639023 0.720432 0 -1.06748 
435 1 435 0.638992 0.760466 0 -1.07522 
436 1 436 0.638963 0.800503 0 -1.29169 
437 1 437 0.638938 0.84054 0 -1.56868 
438 1 438 0.638912 0.88058 0 -2.09593 
439 1 439 0.638891 0.920621 0 -2.79265 
440 1 440 0.638859 0.96066 0 -3.54023 
441 1 441 0.638832 1.0007 0 -4.09575 
442 1 442 0.68 0 0 0 
443 1 443 0.679937 0.0399928 0 0.10507 
444 1 444 0.679868 0.0799913 0 0.35851 
445 1 445 0.679796 0.119996 0 0.600854 
446 1 446 0.67973 0.160006 0 0.548267 
447 1 447 0.679664 0.200023 0 0.419509 
448 1 448 0.679601 0.240045 0 0.440892 
449 1 449 0.679539 0.280069 0 0.710764 
450 1 450 0.67948 0.320096 0 1.00825 
451 1 451 0.679422 0.360125 0 1.29429 
452 1 452 0.679368 0.400156 0 1.38191 
453 1 453 0.679315 0.440191 0 1.27554 
454 1 454 0.679262 0.480228 0 0.874603 
455 1 455 0.679212 0.520266 0 0.345006 
456 1 456 0.679155 0.560304 0 -0.160419 
457 1 457 0.679096 0.600342 0 -0.611447 
458 1 458 0.679043 0.640379 0 -0.796187 
459 1 459 0.678998 0.680415 0 -0.869775 
460 1 460 0.678957 0.72045 0 -0.908103 
461 1 461 0.678917 0.760486 0 -0.925164 
462 1 462 0.678886 0.800522 0 -1.21517 
463 1 463 0.678865 0.84056 0 -1.55201 
464 1 464 0.678835 0.8806 0 -2.09818 
465 1 465 0.678807 0.920642 0 -2.74307 
466 1 466 0.678779 0.960682 0 -3.32612 
467 1 467 0.678759 1.00072 0 -3.75943 
468 1 468 0.72 0 0 0 
469 1 469 0.719928 0.0399926 0 0.051142 
470 1 470 0.719853 0.0799912 0 0.404872 
471 1 471 0.719774 0.119995 0 0.753758 
472 1 472 0.719699 0.160005 0 0.694578 
473 1 473 0.719626 0.200021 0 0.48466 
474 1 474 0.719558 0.240043 0 0.465219 
475 1 475 0.719491 0.280067 0 0.722672 
476 1 476 0.719427 0.320095 0 1.09054 
477 1 477 0.719365 0.360125 0 1.45843 
478 1 478 0.719306 0.400157 0 1.50881 
479 1 479 0.719249 0.440193 0 1.32437 
480 1 480 0.71919 0.480231 0 0.814543 
481 1 481 0.719132 0.52027 0 0.210889 
482 1 482 0.719075 0.560311 0 -0.293108 
483 1 483 0.719023 0.600349 0 -0.681166 
484 1 484 0.718967 0.640386 0 -0.733857 
485 1 485 0.718907 0.680422 0 -0.734246 
486 1 486 0.718861 0.720459 0 -0.758025 
487 1 487 0.718827 0.760495 0 -0.821082 
488 1 488 0.718796 0.800533 0 -1.21004 
489 1 489 0.718769 0.840573 0 -1.63444 
490 1 490 0.718742 0.880614 0 -2.18091 
491 1 491 0.718722 0.920657 0 -2.72534 
492 1 492 0.718697 0.960697 0 -3.11637 
493 1 493 0.71868 1.00074 0 -3.40797 
494 1 494 0.76 0 0 0 
495 1 495 0.759922 0.0399928 0 0.11447 
496 1 496 0.759838 0.0799918 0 0.526354 
497 1 497 0.759752 0.119996 0 0.901265 
498 1 498 0.75967 0.160006 0 0.861392 
499 1 499 0.759588 0.200022 0 0.624589 
500 1 500 0.759513 0.240042 0 0.547541 
501 1 501 0.759442 0.280067 0 0.707425 
502 1 502 0.759374 0.320094 0 1.0095 
503 1 503 0.759307 0.360123 0 1.35744 
504 1 504 0.759243 0.400155 0 1.37906 
505 1 505 0.75918 0.440191 0 1.16748 
506 1 506 0.759118 0.48023 0 0.638322 
507 1 507 0.759061 0.520271 0 0.0773085 
508 1 508 0.758998 0.560314 0 -0.347649 
509 1 509 0.758936 0.600356 0 -0.659421 
510 1 510 0.758881 0.640398 0 -0.662101 
511 1 511 0.758835 0.680438 0 -0.641218 
512 1 512 0.758792 0.720474 0 -0.645903 
513 1 513 0.758749 0.76051 0 -0.778997 
514 1 514 0.758716 0.800547 0 -1.27574 
515 1 515 0.758692 0.840586 0 -1.82897 
516 1 516 0.758662 0.880626 0 -2.39785 
517 1 517 0.758635 0.920669 0 -2.79114 
518 1 518 0.758616 0.960709 0 -2.95591 
519 1 519 0.758607 1.00075 0 -3.09754 
520 1 520 0.8 0 0 0 
521 1 521 0.799912 0.0399945 0 0.309776 
522 1 522 0.799823 0.0799944 0 0.7546 
523 1 523 0.799731 0.119999 0 1.0973 
524 1 524 0.799639 0.160009 0 1.04199 
525 1 525 0.799549 0.200025 0 0.72047 
526 1 526 0.799468 0.240045 0 0.549064 
527 1 527 0.799391 0.280069 0 0.626852 
528 1 528 0.799319 0.320096 0 0.862435 
529 1 529 0.799247 0.360126 0 1.14839 
530 1 530 0.799178 0.400158 0 1.12228 
531 1 531 0.79911 0.440194 0 0.911869 
532 1 532 0.799042 0.480233 0 0.437474 
533 1 533 0.798976 0.520275 0 -0.039273 
534 1 534 0.798914 0.560319 0 -0.386297 
535 1 535 0.79886 0.600361 0 -0.592215 
536 1 536 0.798802 0.640402 0 -0.51547 
537 1 537 0.798742 0.68044 0 -0.452004 
538 1 538 0.798694 0.720478 0 -0.462403 
539 1 539 0.798658 0.760514 0 -0.722626 
540 1 540 0.798625 0.800551 0 -1.31064 
541 1 541 0.798594 0.840591 0 -1.92171 
542 1 542 0.798568 0.880632 0 -2.4431 
543 1 543 0.798549 0.920674 0 -2.69357 
544 1 544 0.798533 0.960714 0 -2.73287 
545 1 545 0.798526 1.00075 0 -2.78396 
546 1 546 0.84 0 0 0 
547 1 547 0.839906 0.0399956 0 0.507307 
548 1 548 0.839807 0.0799974 0 0.953217 
549 1 549 0.839708 0.120003 0 1.21044 
550 1 550 0.839609 0.160014 0 1.16095 
551 1 551 0.839511 0.20003 0 0.867264 
552 1 552 0.839422 0.240049 0 0.63364 
553 1 553 0.839338 0.280073 0 0.558069 
554 1 554 0.83926 0.3201 0 0.667594 
555 1 555 0.839184 0.360128 0 0.878836 
556 1 556 0.839111 0.40016 0 0.821091 
557 1 557 0.839037 0.440195 0 0.613112 
558 1 558 0.838967 0.480234 0 0.222033 
559 1 559 0.838903 0.520276 0 -0.113655 
560 1 560 0.838836 0.560321 0 -0.337735 
561 1 561 0.838771 0.600366 0 -0.438601 
562 1 562 0.838716 0.640411 0 -0.355042 
563 1 563 0.838672 0.680453 0 -0.31447 
564 1 564 0.838629 0.72049 0 -0.339217 
565 1 565 0.838583 0.760525 0 -0.666932 
566 1 566 0.838548 0.80056 0 -1.27277 
567 1 567 0.838518 0.840598 0 -1.92491 
568 1 568 0.838487 0.880636 0 -2.4231 
569 1 569 0.83846 0.920678 0 -2.58723 
570 1 570 0.838449 0.960718 0 -2.59141 
571 1 571 0.83845 1.00076 0 -2.60478 
572 1 572 0.88 0 0 0 
573 1 573 0.879896 0.0399976 0 0.654132 
574 1 574 0.879791 0.0800004 0 1.07686 
575 1 575 0.879685 0.120007 0 1.2275 
576 1 576 0.879576 0.160019 0 1.18008 
577 1 577 0.879471 0.200035 0 0.968684 
578 1 578 0.879374 0.240055 0 0.736871 
579 1 579 0.879283 0.280078 0 0.56305 
580 1 580 0.8792 0.320105 0 0.527376 
581 1 581 0.879119 0.360135 0 0.571627 
582 1 582 0.879041 0.400167 0 0.470191 
583 1 583 0.878964 0.440202 0 0.328305 
584 1 584 0.878889 0.480241 0 0.0725362 
585 1 585 0.878816 0.520282 0 -0.144073 
586 1 586 0.87875 0.560326 0 -0.322754 
587 1 587 0.878696 0.600369 0 -0.380186 
588 1 588 0.878638 0.640411 0 -0.320174 
589 1 589 0.878579 0.68045 0 -0.313197 
590 1 590 0.878532 0.720488 0 -0.331826 
591 1 591 0.878494 0.760524 0 -0.669953 
592 1 592 0.878457 0.800559 0 -1.26566 
593 1 593 0.878419 0.840597 0 -1.91827 
594 1 594 0.878392 0.880636 0 -2.32197 
595 1 595 0.878372 0.920676 0 -2.38216 
596 1 596 0.878362 0.960716 0 -2.44871 
597 1 597 0.878363 1.00076 0 -2.5132 
598 1 598 0.92 0 0 0 
599 1 599 0.919888 0.0399977 0 0.724566 
600 1 600 0.919773 0.0800009 0 1.08526 
601 1 601 0.919658 0.120009 0 1.14724 
602 1 602 0.919545 0.160022 0 1.12069 
603 1 603 0.919432 0.200038 0 1.0046 
604 1 604 0.919326 0.240057 0 0.812968 
605 1 605 0.919229 0.280081 0 0.596968 
606 1 606 0.919139 0.320108 0 0.46342 
607 1 607 0.919054 0.360138 0 0.385149 
608 1 608 0.918972 0.400169 0 0.238431 
609 1 609 0.91889 0.440204 0 0.0666134 
610 1 610 0.918813 0.480243 0 -0.141526 
611 1 611 0.918742 0.520284 0 -0.247462 
612 1 612 0.918673 0.560328 0 -0.380549 
613 1 613 0.918607 0.600373 0 -0.45055 
614 1 614 0.918552 0.640418 0 -0.434519 
615 1 615 0.918512 0.680458 0 -0.446651 
616 1 616 0.918468 0.720495 0 -0.478938 
617 1 617 0.91842 0.76053 0 -0.795662 
618 1 618 0.91838 0.800564 0 -1.29629 
619 1 619 0.918344 0.8406 0 -1.8422 
620 1 620 0.918311 0.880636 0 -2.11411 
621 1 621 0.918282 0.920675 0 -2.09877 
622 1 622 0.918274 0.960715 0 -2.28133 
623 1 623 0.91828 1.00076 0 -2.44961 
624 1 624 0.96 0 0 0 
625 1 625 0.959876 0.039997 0 0.649258 
626 1 626 0.959755 0.0800001 0 0.929513 
627 1 627 0.959634 0.120009 0 0.974913 
628 1 628 0.959511 0.160021 0 1.06364 
629 1 629 0.959392 0.200037 0 1.12816 
630 1 630 0.95928 0.240057 0 1.00821 
631 1 631 0.959175 0.280081 0 0.732061 
632 1 632 0.959079 0.320108 0 0.445485 
633 1 633 0.958989 0.36014 0 0.164001 
634 1 634 0.958902 0.400174 0 -0.0810248 
635 1 635 0.958817 0.44021 0 -0.256489 
636 1 636 0.958736 0.480249 0 -0.393675 
637 1 637 0.958656 0.520289 0 -0.464538 
638 1 638 0.958586 0.560331 0 -0.6191 
639 1 639 0.95853 0.600372 0 -0.712975 
640 1 640 0.958473 0.640411 0 -0.738044 
641 1 641 0.958415 0.680449 0 -0.782246 
642 1 642 0.958368 0.720486 0 -0.800201 
643 1 643 0.95833 0.760522 0 -0.996797 
644 1 644 0.958288 0.800556 0 -1.3646 
645 1 645 0.958243 0.840595 0 -1.75739 
646 1 646 0.958213 0.880632 0 -1.85683 
647 1 647 0.958193 0.920671 0 -1.78002 
648 1 648 0.958183 0.960712 0 -2.10233 
649 1 649 0.958183 1.00076 0 -2.40265 
650 1 650 1 0 0 0 
651 1 651 0.999868 0.0399945 0 0.507351 
652 1 652 0.999736 0.0799968 0 0.709582 
653 1 653 0.999606 0.120005 0 0.748816 
654 1 654 0.99948 0.160017 0 0.925476 
655 1 655 0.999355 0.200032 0 1.17303 
656 1 656 0.999235 0.240051 0 1.18138 
657 1 657 0.999124 0.280074 0 0.912184 
658 1 658 0.999021 0.320102 0 0.512933 
659 1 659 0.998925 0.360134 0 0.0384156 
660 1 660 0.998835 0.400169 0 -0.329867 
661 1 661 0.998744 0.440206 0 -0.566986 
662 1 662 0.99866 0.480245 0 -0.70372 
663 1 663 0.998582 0.520285 0 -0.762058 
664 1 664 0.998509 0.560326 0 -0.904483 
665 1 665 0.998438 0.600367 0 -1.04856 
666 1 666 0.998383 0.640411 0 -1.14291 
667 1 667 0.998345 0.68045 0 -1.20963 
668 1 668 0.998303 0.720486 0 -1.24199 
669 1 669 0.998253 0.760522 0 -1.31588 
670 1 670 0.998208 0.800556 0 -1.49936 
671 1 671 0.998168 0.840593 0 -1.67995 
672 1 672 0.99813 0.880631 0 -1.62177 
673 1 673 0.998101 0.920671 0 -1.49588 
674 1 674 0.99809 0.960713 0 -1.87774 
675 1 675 0.998091 1.00076 0 -2.26434 
676 1 676 1.04 0 0 0 
677 1 677 1.03985 0.0399923 0 0.256762 
678 1 678 1.03972 0.0799923 0 0.414736 
679 1 679 1.03958 0.119999 0 0.577978 
680 1 680 1.03945 0.160009 0 0.881486 
681 1 681 1.03932 0.200023 0 1.25344 
682 1 682 1.03919 0.24004 0 1.3718 
683 1 683 1.03907 0.280063 0 1.13457 
684 1 684 1.03896 0.320091 0 0.645948 
685 1 685 1.03886 0.360124 0 -0.014868 
686 1 686 1.03876 0.400161 0 -0.543792 
687 1 687 1.03867 0.4402 0 -0.851578 
688 1 688 1.03858 0.480239 0 -0.96135 
689 1 689 1.03849 0.520279 0 -1.02134 
690 1 690 1.03842 0.560319 0 -1.16115 
691 1 691 1.03836 0.600356 0 -1.34198 
692 1 692 1.0383 0.640393 0 -1.48152 
693 1 693 1.03824 0.68043 0 -1.55449 
694 1 694 1.0382 0.720468 0 -1.61237 
695 1 695 1.03816 0.760506 0 -1.60383 
696 1 696 1.03811 0.800545 0 -1.65645 
697 1 697 1.03806 0.840586 0 -1.58927 
698 1 698 1.03803 0.880628 0 -1.32769 
699 1 699 1.03801 0.92067 0 -1.18855 
700 1 700 1.03799 0.960713 0 -1.6209 
701 1 701 1.03799 1.00076 0 -2.0602 
702 1 702 1.08 0 0 0 
703 1 703 1.07985 0.0399899 0 -0.000601258 
704 1 704 1.0797 0.0799875 0 0.11598 
705 1 705 1.07956 0.119992 0 0.390278 
706 1 706 1.07942 0.159999 0 0.801035 
707 1 707 1.07929 0.200011 0 1.30048 
708 1 708 1.07915 0.240027 0 1.56742 
709 1 709 1.07903 0.280048 0 1.37001 
710 1 710 1.07891 0.320074 0 0.773812 
711 1 711 1.0788 0.360106 0 -0.0134954 
712 1 712 1.0787 0.400142 0 -0.611592 
713 1 713 1.0786 0.440181 0 -0.949693 
714 1 714 1.07851 0.48022 0 -1.0478 
715 1 715 1.07842 0.520259 0 -1.12111 
716 1 716 1.07834 0.560298 0 -1.22112 
717 1 717 1.07826 0.600339 0 -1.43401 
718 1 718 1.07821 0.64038 0 -1.67656 
719 1 719 1.07817 0.680421 0 -1.83109 
720 1 720 1.07813 0.72046 0 -1.98885 
721 1 721 1.07808 0.760501 0 -1.93973 
722 1 722 1.07803 0.800541 0 -1.87138 
723 1 723 1.07799 0.840583 0 -1.59459 
724 1 724 1.07794 0.880627 0 -1.18592 
725 1 725 1.07791 0.920672 0 -1.02563 
726 1 726 1.0779 0.960717 0 -1.3802 
727 1 727 1.07789 1.00077 0 -1.77307 
728 1 728 1.12 0 0 0 
729 1 729 1.11983 0.0399885 0 -0.178888 
730 1 730 1.11968 0.0799831 0 -0.13366 
731 1 731 1.11953 0.119984 0 0.18678 
732 1 732 1.11939 0.159989 0 0.696741 
733 1 733 1.11925 0.199998 0 1.27747 
734 1 734 1.11912 0.240012 0 1.6455 
735 1 735 1.11898 0.28003 0 1.56807 
736 1 736 1.11886 0.320054 0 0.997394 
737 1 737 1.11874 0.360085 0 0.163557 
738 1 738 1.11863 0.400121 0 -0.503941 
739 1 739 1.11853 0.44016 0 -0.878335 
740 1 740 1.11843 0.480199 0 -0.893695 
741 1 741 1.11833 0.520238 0 -0.912322 
742 1 742 1.11825 0.560277 0 -0.983782 
743 1 743 1.11818 0.600314 0 -1.23986 
744 1 744 1.11813 0.640352 0 -1.57803 
745 1 745 1.11806 0.680391 0 -1.84726 
746 1 746 1.11801 0.720434 0 -2.1949 
747 1 747 1.11798 0.76048 0 -2.2252 
748 1 748 1.11792 0.800527 0 -2.12706 
749 1 749 1.11788 0.840576 0 -1.72018 
750 1 750 1.11784 0.880624 0 -1.19602 
751 1 751 1.11782 0.920672 0 -1.00142 
752 1 752 1.11779 0.96072 0 -1.19543 
753 1 753 1.11778 1.00077 0 -1.45719 
754 1 754 1.16 0 0 0 
755 1 755 1.15983 0.0399871 0 -0.336835 
756 1 756 1.15967 0.07998 0 -0.271968 
757 1 757 1.15951 0.119978 0 0.15536 
758 1 758 1.15936 0.15998 0 0.681889 
759 1 759 1.15922 0.199986 0 1.21872 
760 1 760 1.15908 0.239996 0 1.65705 
761 1 761 1.15894 0.280011 0 1.71865 
762 1 762 1.15881 0.320032 0 1.19448 
763 1 763 1.15868 0.36006 0 0.383771 
764 1 764 1.15857 0.400092 0 -0.235123 
765 1 765 1.15846 0.440128 0 -0.598696 
766 1 766 1.15835 0.480167 0 -0.614246 
767 1 767 1.15826 0.520205 0 -0.666395 
768 1 768 1.15818 0.560243 0 -0.71187 
769 1 769 1.15809 0.600285 0 -0.96885 
770 1 770 1.15803 0.640329 0 -1.42639 
771 1 771 1.15799 0.680375 0 -1.87811 
772 1 772 1.15794 0.720422 0 -2.45906 
773 1 773 1.15789 0.760472 0 -2.58253 
774 1 774 1.15783 0.800522 0 -2.41877 
775 1 775 1.15779 0.840572 0 -1.9079 
776 1 776 1.15775 0.880622 0 -1.27673 
777 1 777 1.15771 0.920673 0 -0.986347 
778 1 778 1.15769 0.960723 0 -0.919293 