ITEM: TIMESTEP
0
ITEM: NUMBER OF ATOMS
6875
ITEM: BOX BOUNDS sm sm sm
0 4
0 2
0 0
ITEM: ATOMS id type tag x y z damage s11 s22 s33 s12 s13 s23 vx T ienergy 
1 1 1 0.0199961 0.019997 0 0 -0.0745611 -0.0720229 -0.0469769 -0.0263141 0 0 0.0253619 0 0 
2 1 2 0.0199917 0.0599928 0 0 -0.125558 -0.0745479 -0.0641338 -0.0333796 0 0 0.0458022 0 0 
3 1 3 0.0199908 0.0999928 0 0 -0.128329 -0.0532039 -0.058179 -0.0342091 0 0 0.306722 0 0 
4 1 4 0.0199907 0.139994 0 0 -0.13163 -0.0450546 -0.0566256 -0.0258747 0 0 0.132549 0 0 
5 1 5 0.0199911 0.179997 0 0 -0.124162 -0.0447484 -0.0541315 -0.0105193 0 0 -0.231025 0 0 
6 1 6 0.0199925 0.219999 0 0 -0.106236 -0.0359613 -0.0455646 -0.00367994 0 0 -0.136355 0 0 
7 1 7 0.0199937 0.260001 0 0 -0.0838448 -0.0371783 -0.0387745 0.00772796 0 0 -0.437202 0 0 
8 1 8 0.0199954 0.300001 0 0 -0.0620273 -0.0255961 -0.028065 0.00174042 0 0 -0.252289 0 0 
9 1 9 0.0199949 0.340002 0 0 -0.0658642 -0.0230076 -0.0284635 0.00647819 0 0 -0.125178 0 0 
10 1 10 0.0199957 0.380002 0 0 -0.0597368 -0.0226928 -0.0263975 0.0140583 0 0 -0.122194 0 0 
11 1 11 0.0199955 0.420004 0 0 -0.0572159 -0.0187285 -0.0243184 0.0139167 0 0 0.108303 0 0 
12 1 12 0.0199951 0.460004 0 0 -0.0668799 -0.03296 -0.0319795 0.0198059 0 0 -0.196747 0 0 
13 1 13 0.0199952 0.500004 0 0 -0.0557406 -0.0384091 -0.0301562 0.0172816 0 0 -0.33384 0 0 
14 1 14 0.019993 0.540001 0 0 -0.0697046 -0.0418943 -0.0357516 -0.000834907 0 0 -0.332441 0 0 
15 1 15 0.0199887 0.579999 0 0 -0.0870974 -0.0660605 -0.0490779 0.000691871 0 0 -1.4261 0 0 
16 1 16 0.0199857 0.619996 0 0 -0.091435 -0.0537019 -0.046507 -0.0258853 0 0 -1.57131 0 0 
17 1 17 0.0199812 0.659994 0 0 -0.133469 -0.0773679 -0.0675783 -0.0268964 0 0 -2.04391 0 0 
18 1 18 0.0199817 0.699992 0 0 -0.140695 -0.0703678 -0.0676498 -0.0337077 0 0 -2.15065 0 0 
19 1 19 0.0199826 0.739992 0 0 -0.157896 -0.0853859 -0.0779844 -0.0380558 0 0 -1.64705 0 0 
20 1 20 0.019984 0.779991 0 0 -0.175559 -0.0729188 -0.0796508 -0.0436584 0 0 -1.12228 0 0 
21 1 21 0.0199837 0.819992 0 0 -0.200275 -0.101549 -0.0967655 -0.033212 0 0 -1.08769 0 0 
22 1 22 0.0199861 0.859992 0 0 -0.190482 -0.0751822 -0.0851636 -0.0371756 0 0 -0.483117 0 0 
23 1 23 0.0199831 0.899996 0 0 -0.232721 -0.0879077 -0.1028 -0.0295437 0 0 0.00894227 0 0 
24 1 24 0.0199845 0.939998 0 0 -0.225423 -0.092495 -0.101938 0.00299311 0 0 -0.753554 0 0 
25 1 25 0.0199808 0.980008 0 0 -0.218156 -0.0262264 -0.0883196 -0.0112363 0 0 0.86087 0 0 
26 1 26 0.0599935 0.0199936 0 0 -0.0592902 -0.109141 -0.0539809 -0.0327727 0 0 0.369045 0 0 
27 1 27 0.0599831 0.0599831 0 0 -0.0844046 -0.0866349 -0.054816 -0.0263204 0 0 0.232972 0 0 
28 1 28 0.0599767 0.0999805 0 0 -0.119338 -0.0489208 -0.0539224 -0.0294404 0 0 0.251895 0 0 
29 1 29 0.0599725 0.139983 0 0 -0.146251 -0.0354218 -0.0582207 -0.0264672 0 0 -0.0317435 0 0 
30 1 30 0.0599733 0.17999 0 0 -0.139313 -0.0299013 -0.054229 -0.00688577 0 0 -0.48654 0 0 
31 1 31 0.0599781 0.219994 0 0 -0.116352 -0.0248224 -0.0452381 -0.010602 0 0 0.268143 0 0 
32 1 32 0.0599826 0.259998 0 0 -0.101786 -0.0353087 -0.0439304 0.00565757 0 0 -0.216464 0 0 
33 1 33 0.059987 0.299999 0 0 -0.0862351 -0.0293778 -0.0370423 -0.0100357 0 0 0.196042 0 0 
34 1 34 0.0599855 0.340003 0 0 -0.0782781 -0.0111368 -0.0286432 -0.00474967 0 0 0.103195 0 0 
35 1 35 0.0599868 0.380005 0 0 -0.080862 -0.0207834 -0.0325627 0.00846157 0 0 -0.352065 0 0 
36 1 36 0.0599877 0.420009 0 0 -0.0679828 -0.00662959 -0.023896 0.00374868 0 0 0.139967 0 0 
37 1 37 0.0599883 0.460011 0 0 -0.0690004 -0.0328082 -0.0326161 0.0168927 0 0 -0.206836 0 0 
38 1 38 0.059992 0.50001 0 0 -0.0625491 -0.0489893 -0.0357356 0.0224214 0 0 0.0571516 0 0 
39 1 39 0.059993 0.540006 0 0 -0.0640276 -0.0579395 -0.0390783 -0.00382296 0 0 1.08124 0 0 
40 1 40 0.059993 0.58 0 0 -0.0868295 -0.0907741 -0.0569182 0.018399 0 0 0.384673 0 0 
41 1 41 0.0599946 0.619993 0 0 -0.0975446 -0.0804629 -0.0570474 -0.0171925 0 0 1.48337 0 0 
42 1 42 0.0599879 0.659987 0 0 -0.132227 -0.0999467 -0.0744214 -0.0109768 0 0 1.08962 0 0 
43 1 43 0.0599843 0.699982 0 0 -0.144834 -0.0857419 -0.0739089 -0.014955 0 0 0.274954 0 0 
44 1 44 0.0599779 0.73998 0 0 -0.180979 -0.105351 -0.091796 -0.0220095 0 0 0.249318 0 0 
45 1 45 0.0599713 0.779978 0 0 -0.182169 -0.0852606 -0.0857315 -0.0270262 0 0 -0.198666 0 0 
46 1 46 0.0599656 0.819979 0 0 -0.202407 -0.0939199 -0.095001 -0.0225172 0 0 -0.303606 0 0 
47 1 47 0.0599623 0.85998 0 0 -0.227748 -0.093005 -0.102845 -0.0254178 0 0 -0.0426772 0 0 
48 1 48 0.0599549 0.899985 0 0 -0.217571 -0.0462821 -0.0845773 -0.0411617 0 0 1.20378 0 0 
49 1 49 0.0599509 0.939996 0 0 -0.270301 -0.0560058 -0.104626 0.0116099 0 0 -0.111689 0 0 
50 1 50 0.0599448 0.980012 0 0 -0.214076 0.0291227 -0.0592822 -0.0548131 0 0 2.77905 0 0 
51 1 51 0.0999922 0.0199935 0 0 -0.047176 -0.104731 -0.0486939 -0.0300162 0 0 0.31176 0 0 
52 1 52 0.0999752 0.0599814 0 0 -0.0699429 -0.0985902 -0.0540192 -0.0314588 0 0 -0.202746 0 0 
53 1 53 0.0999601 0.0999757 0 0 -0.108609 -0.0575818 -0.0532621 -0.029277 0 0 -0.185578 0 0 
54 1 54 0.0999511 0.139977 0 0 -0.143144 -0.0458746 -0.0605802 -0.0174168 0 0 0.177187 0 0 
55 1 55 0.0999524 0.179982 0 0 -0.134656 -0.0185959 -0.0491129 0.00861346 0 0 -0.419 0 0 
56 1 56 0.0999596 0.219988 0 0 -0.128216 -0.0321366 -0.0513892 -0.000539664 0 0 0.239553 0 0 
57 1 57 0.0999668 0.259993 0 0 -0.107628 -0.0203051 -0.0409948 0.0161893 0 0 -0.177707 0 0 
58 1 58 0.0999732 0.299997 0 0 -0.0997765 -0.0251994 -0.0400476 -0.00352626 0 0 0.652397 0 0 
59 1 59 0.0999722 0.340002 0 0 -0.0875277 -0.00495573 -0.0296313 -0.00190218 0 0 0.426097 0 0 
60 1 60 0.099973 0.380007 0 0 -0.097906 -0.0193191 -0.0375608 0.00749439 0 0 -0.223532 0 0 
61 1 61 0.0999747 0.420012 0 0 -0.0842968 -0.0043758 -0.0284064 0.0035438 0 0 0.0491747 0 0 
62 1 62 0.0999769 0.460015 0 0 -0.0801923 -0.0348955 -0.0368762 0.0145333 0 0 -0.631211 0 0 
63 1 63 0.0999816 0.500015 0 0 -0.0725585 -0.039951 -0.0360504 0.0176639 0 0 -0.449729 0 0 
64 1 64 0.0999801 0.540012 0 0 -0.0702485 -0.0684589 -0.0444469 -0.00187369 0 0 -0.206643 0 0 
65 1 65 0.0999746 0.580005 0 0 -0.0712753 -0.083384 -0.0495602 0.0163063 0 0 -1.47166 0 0 
66 1 66 0.0999671 0.619997 0 0 -0.0868026 -0.0829913 -0.0544134 -0.0151436 0 0 -1.76777 0 0 
67 1 67 0.0999548 0.659989 0 0 -0.111436 -0.112045 -0.0716313 -0.00345292 0 0 -3.09372 0 0 
68 1 68 0.0999491 0.699982 0 0 -0.1266 -0.0886286 -0.0689857 -0.0100472 0 0 -3.61705 0 0 
69 1 69 0.0999431 0.739977 0 0 -0.160903 -0.103328 -0.0847062 -0.0177314 0 0 -2.96517 0 0 
70 1 70 0.0999391 0.779974 0 0 -0.171313 -0.104782 -0.0885137 -0.0110736 0 0 -3.00246 0 0 
71 1 71 0.0999351 0.819971 0 0 -0.183634 -0.0844097 -0.0859289 -0.0292189 0 0 -1.51801 0 0 
72 1 72 0.0999294 0.859973 0 0 -0.213742 -0.0856096 -0.0959801 -0.0211419 0 0 -0.770696 0 0 
73 1 73 0.0999206 0.899978 0 0 -0.229647 -0.0544863 -0.0910883 -0.0424857 0 0 1.0664 0 0 
74 1 74 0.0999117 0.939991 0 0 -0.235406 -0.00810767 -0.0780568 -0.0227461 0 0 0.662438 0 0 
75 1 75 0.0999069 0.980007 0 0 -0.242834 -0.0237284 -0.0854552 -0.0339349 0 0 2.84176 0 0 
76 1 76 0.139993 0.0199952 0 0 -0.0459195 -0.0843152 -0.0417427 -0.0287403 0 0 0.507216 0 0 
77 1 77 0.139973 0.059985 0 0 -0.0727456 -0.0920269 -0.0528122 -0.0372315 0 0 0.341232 0 0 
78 1 78 0.13995 0.0999801 0 0 -0.0872939 -0.0465579 -0.0428996 -0.0271861 0 0 0.145744 0 0 
79 1 79 0.139935 0.13998 0 0 -0.121101 -0.0549463 -0.0564262 -5.23461e-05 0 0 0.448035 0 0 
80 1 80 0.139934 0.179983 0 0 -0.126058 -0.0181444 -0.0462136 0.0304393 0 0 -0.269191 0 0 
81 1 81 0.139941 0.219988 0 0 -0.148362 -0.0472698 -0.0627051 0.0251494 0 0 0.28671 0 0 
82 1 82 0.13995 0.259994 0 0 -0.132497 -0.0208813 -0.0491547 0.038934 0 0 0.134274 0 0 
83 1 83 0.139958 0.299999 0 0 -0.13233 -0.0356808 -0.0538486 0.0136551 0 0 0.927694 0 0 
84 1 84 0.139958 0.340004 0 0 -0.114797 -0.0224124 -0.0439723 0.00902948 0 0 0.406889 0 0 
85 1 85 0.139959 0.380008 0 0 -0.111224 -0.0283825 -0.0447375 0.0106974 0 0 -0.11328 0 0 
86 1 86 0.139962 0.420013 0 0 -0.0969057 -0.015366 -0.035971 0.00787987 0 0 -0.0122592 0 0 
87 1 87 0.139967 0.460015 0 0 -0.0972915 -0.043329 -0.0450603 0.0149772 0 0 -0.633974 0 0 
88 1 88 0.139975 0.500016 0 0 -0.0955394 -0.0427263 -0.0443073 0.00840491 0 0 0.373241 0 0 
89 1 89 0.139978 0.540014 0 0 -0.100637 -0.0691179 -0.0544024 -0.00157258 0 0 0.766807 0 0 
90 1 90 0.13998 0.580009 0 0 -0.115415 -0.103885 -0.0702923 0.00501741 0 0 0.936671 0 0 
91 1 91 0.139975 0.620001 0 0 -0.126006 -0.0921304 -0.0699199 -0.0253958 0 0 1.53196 0 0 
92 1 92 0.139964 0.659994 0 0 -0.15386 -0.139681 -0.0941102 -0.0042957 0 0 0.197542 0 0 
93 1 93 0.139954 0.699985 0 0 -0.161181 -0.118428 -0.0896414 -0.0207098 0 0 -0.234192 0 0 
94 1 94 0.139939 0.739978 0 0 -0.182216 -0.124058 -0.0981976 -0.0165756 0 0 -0.761105 0 0 
95 1 95 0.139929 0.779973 0 0 -0.193195 -0.1268 -0.102603 -0.0107802 0 0 -1.59438 0 0 
96 1 96 0.139917 0.819969 0 0 -0.213221 -0.110356 -0.10375 -0.0299721 0 0 -0.275749 0 0 
97 1 97 0.139904 0.85997 0 0 -0.224462 -0.0793864 -0.097419 -0.0175334 0 0 0.213154 0 0 
98 1 98 0.13989 0.899976 0 0 -0.239705 -0.0745034 -0.100739 -0.0433158 0 0 2.07002 0 0 
99 1 99 0.139876 0.939985 0 0 -0.250403 -0.0289957 -0.0895799 -0.0162483 0 0 1.92934 0 0 
100 1 100 0.139868 0.980003 0 0 -0.259304 -0.00118027 -0.0835095 -0.0244323 0 0 3.04983 0 0 
101 1 101 0.179991 0.0199973 0 0 -0.0316928 -0.0502859 -0.0262625 -0.0335254 0 0 0.409773 0 0 
102 1 102 0.179966 0.0599918 0 0 -0.0571688 -0.0566944 -0.0364853 -0.0456104 0 0 0.368792 0 0 
103 1 103 0.179938 0.0999904 0 0 -0.0775403 -0.0278442 -0.0337727 -0.0356533 0 0 0.11 0 0 
104 1 104 0.179919 0.139991 0 0 -0.120985 -0.0608668 -0.0582899 0.00116053 0 0 0.448293 0 0 
105 1 105 0.179914 0.179993 0 0 -0.126238 -0.0278881 -0.0493977 0.0334495 0 0 0.155456 0 0 
106 1 106 0.17992 0.219997 0 0 -0.142236 -0.0476559 -0.060864 0.0393027 0 0 0.513731 0 0 
107 1 107 0.17993 0.260002 0 0 -0.132611 -0.0250347 -0.0505231 0.0461553 0 0 0.497917 0 0 
108 1 108 0.179938 0.300006 0 0 -0.1399 -0.0467656 -0.059832 0.024811 0 0 0.963936 0 0 
109 1 109 0.17994 0.340009 0 0 -0.11915 -0.0373471 -0.0501584 0.0164419 0 0 0.407387 0 0 
110 1 110 0.179942 0.380012 0 0 -0.120343 -0.0462196 -0.0533818 0.0123592 0 0 0.0326056 0 0 
111 1 111 0.179946 0.420014 0 0 -0.117192 -0.0432503 -0.0514149 0.0115119 0 0 -0.265105 0 0 
112 1 112 0.179952 0.460015 0 0 -0.114248 -0.0481711 -0.0520491 0.0163467 0 0 -0.808528 0 0 
113 1 113 0.179958 0.500015 0 0 -0.115801 -0.0598041 -0.0562799 0.00718856 0 0 -0.0295691 0 0 
114 1 114 0.17996 0.540014 0 0 -0.10285 -0.0576366 -0.0514304 -0.00119349 0 0 -0.272562 0 0 
115 1 115 0.179956 0.58001 0 0 -0.114756 -0.0902227 -0.0657012 -0.00588803 0 0 -0.873472 0 0 
116 1 116 0.179944 0.620004 0 0 -0.109709 -0.0883056 -0.0634685 -0.0297584 0 0 -1.4635 0 0 
117 1 117 0.179931 0.659997 0 0 -0.112712 -0.103631 -0.0693458 -0.0130162 0 0 -3.39043 0 0 
118 1 118 0.179919 0.699989 0 0 -0.138228 -0.118961 -0.0824494 -0.0329898 0 0 -3.51299 0 0 
119 1 119 0.179906 0.739981 0 0 -0.15259 -0.117752 -0.0866676 -0.016556 0 0 -3.81172 0 0 
120 1 120 0.179899 0.779974 0 0 -0.167602 -0.11445 -0.0904268 -0.0158976 0 0 -3.47768 0 0 
121 1 121 0.179886 0.819971 0 0 -0.199069 -0.102232 -0.0966004 -0.0378761 0 0 -1.19258 0 0 
122 1 122 0.179871 0.859972 0 0 -0.211218 -0.0768078 -0.0923392 -0.0146989 0 0 -0.560632 0 0 
123 1 123 0.179856 0.899977 0 0 -0.224015 -0.0663515 -0.0930887 -0.0438763 0 0 2.1477 0 0 
124 1 124 0.179837 0.939987 0 0 -0.247427 -0.0293391 -0.088742 -0.023209 0 0 2.37836 0 0 
125 1 125 0.179826 0.980003 0 0 -0.257787 -0.0128943 -0.0867877 -0.0122464 0 0 2.69428 0 0 
126 1 126 0.219989 0.0199994 0 0 -0.0328028 -0.0245721 -0.0183777 -0.0438096 0 0 0.552952 0 0 
127 1 127 0.219962 0.0599985 0 0 -0.0661484 -0.0294238 -0.030617 -0.0558127 0 0 0.947517 0 0 
128 1 128 0.219929 0.1 0 0 -0.0772861 -0.0218827 -0.0317738 -0.049587 0 0 0.471876 0 0 
129 1 129 0.219906 0.140001 0 0 -0.0959442 -0.0444226 -0.0449845 -0.0108714 0 0 0.623634 0 0 
130 1 130 0.219899 0.180003 0 0 -0.110249 -0.0303692 -0.0450658 0.0152789 0 0 0.819357 0 0 
131 1 131 0.219902 0.220006 0 0 -0.142925 -0.0511057 -0.0621908 0.0313468 0 0 0.885297 0 0 
132 1 132 0.219911 0.26001 0 0 -0.144426 -0.0367843 -0.0580786 0.0359067 0 0 1.07585 0 0 
133 1 133 0.219919 0.300013 0 0 -0.153788 -0.0594925 -0.0683676 0.0262396 0 0 1.18966 0 0 
134 1 134 0.219924 0.340015 0 0 -0.134846 -0.0579717 -0.0618064 0.022296 0 0 0.495753 0 0 
135 1 135 0.219927 0.380015 0 0 -0.131923 -0.065052 -0.0631379 0.0088042 0 0 0.303664 0 0 
136 1 136 0.219931 0.420014 0 0 -0.137202 -0.0736808 -0.0675956 0.0174861 0 0 -0.353549 0 0 
137 1 137 0.219938 0.460014 0 0 -0.134703 -0.0583606 -0.061882 0.0128709 0 0 -0.30406 0 0 
138 1 138 0.219945 0.500014 0 0 -0.159868 -0.0810049 -0.0772188 0.00896188 0 0 0.491726 0 0 
139 1 139 0.21995 0.540012 0 0 -0.166814 -0.0926502 -0.0831815 0.00586269 0 0 0.772378 0 0 
140 1 140 0.219952 0.58001 0 0 -0.176719 -0.0947075 -0.0870212 -0.0101144 0 0 1.57759 0 0 
141 1 141 0.219946 0.620006 0 0 -0.202402 -0.136419 -0.108648 -0.0208278 0 0 1.56149 0 0 
142 1 142 0.219936 0.659999 0 0 -0.201033 -0.139339 -0.109144 -0.0127687 0 0 0.427732 0 0 
143 1 143 0.219921 0.699992 0 0 -0.202782 -0.141375 -0.110357 -0.0374659 0 0 0.148712 0 0 
144 1 144 0.219902 0.739984 0 0 -0.213694 -0.160049 -0.119852 -0.0158402 0 0 -1.29455 0 0 
145 1 145 0.219888 0.779977 0 0 -0.210097 -0.119441 -0.105663 -0.0225345 0 0 -1.28008 0 0 
146 1 146 0.219866 0.819975 0 0 -0.23315 -0.12228 -0.113971 -0.0452287 0 0 0.44051 0 0 
147 1 147 0.219845 0.859975 0 0 -0.237349 -0.087451 -0.104142 -0.0161244 0 0 0.323822 0 0 
148 1 148 0.219825 0.899981 0 0 -0.249225 -0.0699622 -0.102337 -0.0468544 0 0 2.71699 0 0 
149 1 149 0.2198 0.939992 0 0 -0.252743 -0.0358703 -0.0925431 -0.029123 0 0 2.93697 0 0 
150 1 150 0.219786 0.980007 0 0 -0.256994 -0.0143787 -0.0870092 -0.00267514 0 0 2.43999 0 0 
151 1 151 0.259985 0.0200011 0 0 -0.0160394 0.00297528 -0.00418086 -0.0588368 0 0 0.225646 0 0 
152 1 152 0.259952 0.0600033 0 0 -0.038424 0.00368392 -0.0111189 -0.0674301 0 0 0.775224 0 0 
153 1 153 0.259918 0.100006 0 0 -0.0577988 -0.0154736 -0.0234694 -0.0624662 0 0 0.45415 0 0 
154 1 154 0.259894 0.140007 0 0 -0.0781977 -0.0372118 -0.0369781 -0.0256447 0 0 0.782586 0 0 
155 1 155 0.259884 0.180008 0 0 -0.100246 -0.0380396 -0.0443151 -0.0113383 0 0 1.33216 0 0 
156 1 156 0.259883 0.220009 0 0 -0.131369 -0.0513154 -0.0585501 0.0104425 0 0 1.16179 0 0 
157 1 157 0.25989 0.260013 0 0 -0.13599 -0.0368826 -0.055402 0.0159501 0 0 1.30741 0 0 
158 1 158 0.259898 0.300016 0 0 -0.149151 -0.0589807 -0.0667124 0.00889133 0 0 0.968163 0 0 
159 1 159 0.259906 0.340017 0 0 -0.143999 -0.0694743 -0.0684272 0.012379 0 0 0.162038 0 0 
160 1 160 0.25991 0.380015 0 0 -0.142022 -0.0827967 -0.0720678 -0.0110912 0 0 0.363167 0 0 
161 1 161 0.259912 0.420013 0 0 -0.155977 -0.0891413 -0.0785797 0.00263242 0 0 -0.226852 0 0 
162 1 162 0.259917 0.460011 0 0 -0.170609 -0.0880746 -0.0829365 -0.00394884 0 0 -0.274444 0 0 
163 1 163 0.259921 0.50001 0 0 -0.170614 -0.0756695 -0.0789605 -0.00535627 0 0 0.156024 0 0 
164 1 164 0.259922 0.54001 0 0 -0.185839 -0.100182 -0.0917063 -0.00387017 0 0 -0.332658 0 0 
165 1 165 0.259918 0.580009 0 0 -0.171681 -0.0837297 -0.0818841 -0.0205488 0 0 -0.461875 0 0 
166 1 166 0.259908 0.620006 0 0 -0.157566 -0.100036 -0.0825845 -0.0271947 0 0 -1.37172 0 0 
167 1 167 0.259895 0.660001 0 0 -0.161923 -0.122677 -0.0912447 -0.0218732 0 0 -2.81058 0 0 
168 1 168 0.259883 0.699994 0 0 -0.147649 -0.10491 -0.0809611 -0.0385607 0 0 -2.94772 0 0 
169 1 169 0.259867 0.739987 0 0 -0.174444 -0.138809 -0.100436 -0.0263897 0 0 -3.41908 0 0 
170 1 170 0.259853 0.779981 0 0 -0.192865 -0.0969206 -0.0929053 -0.0290574 0 0 -2.84308 0 0 
171 1 171 0.259832 0.819981 0 0 -0.210184 -0.105151 -0.101101 -0.0420492 0 0 -0.822606 0 0 
172 1 172 0.259811 0.859982 0 0 -0.218325 -0.0757435 -0.0942804 -0.0185262 0 0 -0.260223 0 0 
173 1 173 0.259789 0.899989 0 0 -0.240564 -0.0600487 -0.0963768 -0.0448713 0 0 1.99215 0 0 
174 1 174 0.259762 0.939999 0 0 -0.246729 -0.037112 -0.0910103 -0.0315694 0 0 2.54508 0 0 
175 1 175 0.259745 0.980014 0 0 -0.257093 -0.0149694 -0.0872273 -0.00369364 0 0 2.15663 0 0 
176 1 176 0.299983 0.0200016 0 0 -0.0143241 0.0113334 -0.000953964 -0.0736781 0 0 0.330683 0 0 
177 1 177 0.299949 0.060005 0 0 -0.0334775 0.011613 -0.00699669 -0.075757 0 0 1.20784 0 0 
178 1 178 0.299913 0.100008 0 0 -0.0455527 -0.0191246 -0.0207153 -0.0742328 0 0 0.708321 0 0 
179 1 179 0.299887 0.140007 0 0 -0.0514139 -0.0321054 -0.0267538 -0.0406997 0 0 0.806724 0 0 
180 1 180 0.299874 0.180005 0 0 -0.0740015 -0.0475903 -0.0389611 -0.0367232 0 0 1.70283 0 0 
181 1 181 0.299869 0.220004 0 0 -0.0991457 -0.0451086 -0.0462249 -0.0148598 0 0 1.72705 0 0 
182 1 182 0.299874 0.260005 0 0 -0.127824 -0.0518664 -0.0575865 -0.012261 0 0 1.4693 0 0 
183 1 183 0.29988 0.300007 0 0 -0.144376 -0.0608171 -0.065766 -0.0183084 0 0 0.810186 0 0 
184 1 184 0.299888 0.340007 0 0 -0.152765 -0.0759326 -0.073305 -0.0127058 0 0 0.231809 0 0 
185 1 185 0.299893 0.380005 0 0 -0.162383 -0.100405 -0.0842426 -0.0358236 0 0 0.276999 0 0 
186 1 186 0.299894 0.420002 0 0 -0.169336 -0.0899907 -0.0831355 -0.0286973 0 0 0.0478755 0 0 
187 1 187 0.299896 0.460001 0 0 -0.212274 -0.109905 -0.103311 -0.0296618 0 0 0.134489 0 0 
188 1 188 0.299899 0.5 0 0 -0.224324 -0.0970835 -0.103068 -0.0199004 0 0 0.665975 0 0 
189 1 189 0.299903 0.540002 0 0 -0.246903 -0.107768 -0.11374 -0.0246002 0 0 1.26316 0 0 
190 1 190 0.299903 0.580002 0 0 -0.272094 -0.126851 -0.12795 -0.0244354 0 0 1.64732 0 0 
191 1 191 0.299902 0.620001 0 0 -0.263907 -0.134607 -0.127809 -0.0262979 0 0 2.00036 0 0 
192 1 192 0.299894 0.659999 0 0 -0.270206 -0.154444 -0.136198 -0.031524 0 0 1.76667 0 0 
193 1 193 0.299879 0.699994 0 0 -0.257972 -0.149426 -0.130657 -0.0285266 0 0 0.474162 0 0 
194 1 194 0.29986 0.73999 0 0 -0.2474 -0.149624 -0.127327 -0.0336251 0 0 -0.18877 0 0 
195 1 195 0.299836 0.779987 0 0 -0.246238 -0.107186 -0.11333 -0.0333811 0 0 -0.419744 0 0 
196 1 196 0.29981 0.819989 0 0 -0.255228 -0.117404 -0.119492 -0.0348184 0 0 0.10798 0 0 
197 1 197 0.299784 0.859992 0 0 -0.245238 -0.0746654 -0.102572 -0.0286297 0 0 0.579429 0 0 
198 1 198 0.299755 0.9 0 0 -0.255572 -0.0681769 -0.103802 -0.0364631 0 0 1.63995 0 0 
199 1 199 0.299727 0.940009 0 0 -0.244706 -0.0448898 -0.0928547 -0.0307786 0 0 2.13447 0 0 
200 1 200 0.299706 0.980024 0 0 -0.251946 -0.0120447 -0.0846342 -0.0059127 0 0 2.11975 0 0 
201 1 201 0.339979 0.0200011 0 0 -0.00441583 0.0112246 0.00218577 -0.0856197 0 0 0.119508 0 0 
202 1 202 0.339941 0.0600038 0 0 -0.0126995 0.0143283 0.000529269 -0.0816797 0 0 0.797568 0 0 
203 1 203 0.339907 0.100004 0 0 -0.0261227 -0.0320492 -0.0186329 -0.0811629 0 0 0.713374 0 0 
204 1 204 0.339883 0.140001 0 0 -0.0178434 -0.0274089 -0.0144908 -0.0562403 0 0 1.14657 0 0 
205 1 205 0.339867 0.179996 0 0 -0.0458228 -0.0635654 -0.0350501 -0.0595772 0 0 1.92105 0 0 
206 1 206 0.339858 0.219991 0 0 -0.0634724 -0.0452602 -0.0348373 -0.0428924 0 0 1.87952 0 0 
207 1 207 0.339858 0.259989 0 0 -0.109309 -0.0683541 -0.0569369 -0.0401858 0 0 1.25179 0 0 
208 1 208 0.339862 0.299987 0 0 -0.125829 -0.0623542 -0.0603091 -0.036407 0 0 0.24187 0 0 
209 1 209 0.339869 0.339986 0 0 -0.146184 -0.0765949 -0.0714045 -0.0368126 0 0 -0.121203 0 0 
210 1 210 0.339872 0.379984 0 0 -0.178551 -0.104512 -0.0907446 -0.0558844 0 0 -0.255574 0 0 
211 1 211 0.33987 0.419982 0 0 -0.197048 -0.097661 -0.0944835 -0.0560356 0 0 0.0921503 0 0 
212 1 212 0.339867 0.459982 0 0 -0.228326 -0.106363 -0.10732 -0.0583118 0 0 0.503423 0 0 
213 1 213 0.339865 0.499983 0 0 -0.242293 -0.0966223 -0.108682 -0.036807 0 0 0.0977706 0 0 
214 1 214 0.339864 0.539987 0 0 -0.24388 -0.0916567 -0.107595 -0.0464554 0 0 0.255219 0 0 
215 1 215 0.339858 0.579991 0 0 -0.224359 -0.0809546 -0.0978942 -0.0377747 0 0 -0.292791 0 0 
216 1 216 0.339853 0.619993 0 0 -0.202032 -0.091988 -0.0942694 -0.0312125 0 0 -1.10366 0 0 
217 1 217 0.339845 0.659993 0 0 -0.175935 -0.0805809 -0.0822334 -0.0444024 0 0 -1.2464 0 0 
218 1 218 0.339833 0.699993 0 0 -0.172858 -0.0849298 -0.0826402 -0.0318539 0 0 -2.33922 0 0 
219 1 219 0.339818 0.739993 0 0 -0.194668 -0.0939297 -0.0925263 -0.0446809 0 0 -2.15431 0 0 
220 1 220 0.339796 0.779995 0 0 -0.196591 -0.0610442 -0.0825911 -0.038613 0 0 -1.89505 0 0 
221 1 221 0.339773 0.819999 0 0 -0.216324 -0.0885281 -0.0977398 -0.0301287 0 0 -1.32427 0 0 
222 1 222 0.339747 0.860004 0 0 -0.222769 -0.0455084 -0.086009 -0.0366854 0 0 -0.323366 0 0 
223 1 223 0.339718 0.900014 0 0 -0.236042 -0.0545549 -0.0931676 -0.0261478 0 0 0.0675072 0 0 
224 1 224 0.33969 0.940024 0 0 -0.234964 -0.0440264 -0.0894518 -0.0276549 0 0 1.18731 0 0 
225 1 225 0.339665 0.980038 0 0 -0.26119 -0.0158459 -0.0888187 -0.00845761 0 0 1.74054 0 0 
226 1 226 0.379979 0.0199999 0 0 -0.00663878 -0.00356707 -0.00326372 -0.0916891 0 0 0.114269 0 0 
227 1 227 0.379942 0.0599998 0 0 -0.00603679 -0.00348557 -0.00304287 -0.0845833 0 0 0.857274 0 0 
228 1 228 0.37991 0.0999964 0 0 -0.00271059 -0.0451171 -0.0153189 -0.0779976 0 0 0.916493 0 0 
229 1 229 0.379886 0.139989 0 0 0.0105259 -0.036025 -0.00816229 -0.0664379 0 0 1.29949 0 0 
230 1 230 0.379868 0.179981 0 0 -0.025927 -0.0761619 -0.0327122 -0.0719414 0 0 1.91134 0 0 
231 1 231 0.379855 0.219972 0 0 -0.0401766 -0.0595299 -0.031948 -0.0579102 0 0 1.98003 0 0 
232 1 232 0.379849 0.259966 0 0 -0.081749 -0.0734496 -0.0497374 -0.0581735 0 0 1.27356 0 0 
233 1 233 0.379848 0.299963 0 0 -0.120869 -0.0725328 -0.0619869 -0.0465618 0 0 -0.0880936 0 0 
234 1 234 0.379852 0.33996 0 0 -0.164693 -0.0911355 -0.0820106 -0.0491664 0 0 -0.0932547 0 0 
235 1 235 0.379851 0.379958 0 0 -0.192159 -0.0975845 -0.0928893 -0.0618756 0 0 -0.155605 0 0 
236 1 236 0.379846 0.419958 0 0 -0.216668 -0.102125 -0.102211 -0.0651029 0 0 0.2705 0 0 
237 1 237 0.379839 0.459958 0 0 -0.246058 -0.108058 -0.113551 -0.0667519 0 0 0.975784 0 0 
238 1 238 0.379834 0.499962 0 0 -0.267591 -0.0909562 -0.114977 -0.0465356 0 0 0.909357 0 0 
239 1 239 0.379834 0.539967 0 0 -0.302219 -0.111322 -0.132631 -0.0478641 0 0 1.63676 0 0 
240 1 240 0.379836 0.579973 0 0 -0.297684 -0.0965824 -0.126444 -0.03357 0 0 2.14611 0 0 
241 1 241 0.37984 0.619979 0 0 -0.309393 -0.11817 -0.137138 -0.0322471 0 0 2.63412 0 0 
242 1 242 0.379836 0.659984 0 0 -0.306425 -0.119274 -0.136538 -0.0425838 0 0 2.80505 0 0 
243 1 243 0.379824 0.699988 0 0 -0.280563 -0.102876 -0.122968 -0.0353355 0 0 1.48456 0 0 
244 1 244 0.379804 0.739993 0 0 -0.274262 -0.0944544 -0.118241 -0.0593113 0 0 1.12176 0 0 
245 1 245 0.379775 0.78 0 0 -0.260973 -0.0660782 -0.104867 -0.0428019 0 0 -0.0408418 0 0 
246 1 246 0.379748 0.820009 0 0 -0.259484 -0.076047 -0.107589 -0.0344723 0 0 -0.249546 0 0 
247 1 247 0.379716 0.860019 0 0 -0.251595 -0.0395233 -0.0933415 -0.042513 0 0 0.24272 0 0 
248 1 248 0.379684 0.900031 0 0 -0.250043 -0.0511358 -0.0965679 -0.0092851 0 0 -0.80562 0 0 
249 1 249 0.379657 0.940042 0 0 -0.232001 -0.0291694 -0.0837376 -0.0264518 0 0 0.808404 0 0 
250 1 250 0.379626 0.980058 0 0 -0.2507 -0.0147291 -0.0850962 -0.00975893 0 0 1.64707 0 0 
251 1 251 0.419978 0.0199982 0 0 -0.0065462 -0.0247291 -0.0100146 -0.0930985 0 0 -0.329492 0 0 
252 1 252 0.41994 0.0599939 0 0 0.00453689 -0.0308784 -0.00843089 -0.0838484 0 0 0.390863 0 0 
253 1 253 0.419912 0.0999866 0 0 0.0128243 -0.0535225 -0.0130334 -0.0729532 0 0 0.920891 0 0 
254 1 254 0.419891 0.139976 0 0 0.0169662 -0.0600505 -0.0137983 -0.07268 0 0 1.44689 0 0 
255 1 255 0.419871 0.179964 0 0 0.00314922 -0.0781091 -0.0240169 -0.0778281 0 0 2.03102 0 0 
256 1 256 0.419855 0.219953 0 0 -0.0139516 -0.0660402 -0.0256303 -0.0688862 0 0 1.81507 0 0 
257 1 257 0.419842 0.259944 0 0 -0.0702394 -0.0916273 -0.0518783 -0.0728072 0 0 0.951599 0 0 
258 1 258 0.419834 0.299937 0 0 -0.105331 -0.0716805 -0.0567343 -0.0598202 0 0 -0.460011 0 0 
259 1 259 0.419832 0.339934 0 0 -0.156408 -0.0935472 -0.0801295 -0.0610433 0 0 -0.468699 0 0 
260 1 260 0.419826 0.379933 0 0 -0.186689 -0.083383 -0.0865799 -0.0708981 0 0 -0.479007 0 0 
261 1 261 0.419817 0.419934 0 0 -0.230151 -0.102078 -0.106525 -0.0804088 0 0 0.301795 0 0 
262 1 262 0.419805 0.459935 0 0 -0.257822 -0.107254 -0.117069 -0.074442 0 0 0.928411 0 0 
263 1 263 0.419795 0.49994 0 0 -0.259807 -0.0811747 -0.109338 -0.0602075 0 0 0.71072 0 0 
264 1 264 0.41979 0.539947 0 0 -0.256402 -0.0748873 -0.106225 -0.0550553 0 0 0.707901 0 0 
265 1 265 0.419786 0.579955 0 0 -0.227512 -0.0570272 -0.0912229 -0.0363814 0 0 -0.0545468 0 0 
266 1 266 0.419785 0.619963 0 0 -0.196527 -0.0423422 -0.0765743 -0.0404703 0 0 -0.417899 0 0 
267 1 267 0.41978 0.659971 0 0 -0.170744 -0.0269106 -0.0633535 -0.0477785 0 0 -0.550705 0 0 
268 1 268 0.419771 0.69998 0 0 -0.182146 -0.0261016 -0.06675 -0.0448293 0 0 -1.32922 0 0 
269 1 269 0.419754 0.739991 0 0 -0.199744 -0.0139557 -0.0684983 -0.0676943 0 0 -0.95845 0 0 
270 1 270 0.419729 0.780005 0 0 -0.210369 -0.0139617 -0.0719099 -0.0432437 0 0 -1.66988 0 0 
271 1 271 0.419705 0.820019 0 0 -0.225052 -0.0126415 -0.0761968 -0.0372736 0 0 -1.52286 0 0 
272 1 272 0.419675 0.860035 0 0 -0.231256 -0.00303502 -0.0751103 -0.0440479 0 0 -0.89881 0 0 
273 1 273 0.419646 0.900051 0 0 -0.235937 -0.0221934 -0.0827576 0.00306251 0 0 -2.21432 0 0 
274 1 274 0.41962 0.940066 0 0 -0.231894 -0.00647239 -0.0764237 -0.0216558 0 0 -0.0370722 0 0 
275 1 275 0.419586 0.980083 0 0 -0.248588 -0.0164446 -0.0849703 -0.00595846 0 0 0.728193 0 0 
276 1 276 0.45998 0.019996 0 0 -0.0186232 -0.0545689 -0.0234503 -0.0885077 0 0 -0.438158 0 0 
277 1 277 0.459947 0.0599875 0 0 -0.00345869 -0.0662709 -0.0223358 -0.073755 0 0 0.338347 0 0 
278 1 278 0.459921 0.099976 0 0 0.0167053 -0.0686339 -0.0166325 -0.0644991 0 0 0.968443 0 0 
279 1 279 0.4599 0.139963 0 0 0.018172 -0.0778536 -0.0191176 -0.0712645 0 0 1.49933 0 0 
280 1 280 0.459879 0.179948 0 0 0.0022425 -0.0949844 -0.029715 -0.0753217 0 0 1.94797 0 0 
281 1 281 0.459859 0.219934 0 0 -0.0146995 -0.0805627 -0.0305225 -0.0775731 0 0 1.56499 0 0 
282 1 282 0.45984 0.259922 0 0 -0.0657892 -0.110629 -0.0565433 -0.0811758 0 0 0.777339 0 0 
283 1 283 0.459825 0.299913 0 0 -0.0994757 -0.081916 -0.0581389 -0.0703972 0 0 -0.347371 0 0 
284 1 284 0.459814 0.339908 0 0 -0.167304 -0.101481 -0.0861717 -0.0742721 0 0 -0.176183 0 0 
285 1 285 0.459803 0.379907 0 0 -0.205906 -0.0909286 -0.0951687 -0.0763765 0 0 -0.377648 0 0 
286 1 286 0.459789 0.419908 0 0 -0.23085 -0.0980969 -0.105472 -0.0880909 0 0 0.629936 0 0 
287 1 287 0.459773 0.459911 0 0 -0.24462 -0.089058 -0.106994 -0.0780551 0 0 1.37739 0 0 
288 1 288 0.459762 0.499917 0 0 -0.276892 -0.0929733 -0.118613 -0.0676081 0 0 1.52411 0 0 
289 1 289 0.459758 0.539924 0 0 -0.293306 -0.0810138 -0.120039 -0.0506806 0 0 2.02801 0 0 
290 1 290 0.459762 0.579934 0 0 -0.310512 -0.0848529 -0.126793 -0.0350818 0 0 2.64683 0 0 
291 1 291 0.459767 0.619944 0 0 -0.334541 -0.0853658 -0.134676 -0.0329523 0 0 3.28964 0 0 
292 1 292 0.459766 0.659957 0 0 -0.331308 -0.071993 -0.129343 -0.0367737 0 0 3.26218 0 0 
293 1 293 0.459755 0.699972 0 0 -0.325748 -0.0556617 -0.122316 -0.0469892 0 0 2.61289 0 0 
294 1 294 0.45973 0.73999 0 0 -0.309362 -0.0223762 -0.106371 -0.0601353 0 0 1.80322 0 0 
295 1 295 0.4597 0.780009 0 0 -0.300097 -0.0224142 -0.103412 -0.0403047 0 0 0.310965 0 0 
296 1 296 0.459671 0.82003 0 0 -0.287608 0.00494049 -0.0906248 -0.0364214 0 0 -0.268443 0 0 
297 1 297 0.459638 0.860052 0 0 -0.275307 0.000825563 -0.0880028 -0.0360357 0 0 -0.593427 0 0 
298 1 298 0.459609 0.900073 0 0 -0.257993 0.00254017 -0.0818975 0.00837213 0 0 -2.08893 0 0 
299 1 299 0.459583 0.940093 0 0 -0.238717 0.0169011 -0.0711126 -0.0171743 0 0 -0.106317 0 0 
300 1 300 0.459549 0.980112 0 0 -0.223561 -0.00771269 -0.0741393 0.00269588 0 0 -0.0364439 0 0 
301 1 301 0.499981 0.0199942 0 0 -0.0190846 -0.0787198 -0.0313403 -0.080349 0 0 -0.710366 0 0 
302 1 302 0.49995 0.059982 0 0 0.000547701 -0.0868196 -0.0276389 -0.0664523 0 0 -0.278065 0 0 
303 1 303 0.499927 0.099967 0 0 0.00357469 -0.0971673 -0.0299872 -0.0589148 0 0 0.769299 0 0 
304 1 304 0.499908 0.139951 0 0 0.00585944 -0.0964279 -0.0290171 -0.0704928 0 0 1.61053 0 0 
305 1 305 0.499885 0.179934 0 0 -0.00556623 -0.109589 -0.0368986 -0.0758681 0 0 1.54161 0 0 
306 1 306 0.499862 0.219918 0 0 -0.0181465 -0.10376 -0.0390619 -0.0837352 0 0 1.04025 0 0 
307 1 307 0.499838 0.259904 0 0 -0.0535156 -0.112111 -0.0530793 -0.0909809 0 0 0.626571 0 0 
308 1 308 0.499815 0.299892 0 0 -0.0952169 -0.101432 -0.0630291 -0.0830171 0 0 -0.498042 0 0 
309 1 309 0.499796 0.339885 0 0 -0.141503 -0.0960337 -0.0761443 -0.0887819 0 0 -0.408757 0 0 
310 1 310 0.499777 0.379883 0 0 -0.178867 -0.0786575 -0.0825536 -0.0871531 0 0 -0.538881 0 0 
311 1 311 0.499758 0.419885 0 0 -0.22147 -0.096239 -0.101865 -0.094273 0 0 0.342537 0 0 
312 1 312 0.49974 0.459888 0 0 -0.228302 -0.0732497 -0.0966854 -0.0861485 0 0 0.990551 0 0 
313 1 313 0.499723 0.499894 0 0 -0.25209 -0.0798944 -0.106456 -0.0830199 0 0 1.23228 0 0 
314 1 314 0.499713 0.539902 0 0 -0.243451 -0.0468327 -0.0930697 -0.0495635 0 0 0.796838 0 0 
315 1 315 0.49971 0.579914 0 0 -0.228498 -0.0320983 -0.083541 -0.0406343 0 0 0.668901 0 0 
316 1 316 0.499707 0.619928 0 0 -0.206094 0.00645643 -0.0639871 -0.0361563 0 0 0.158762 0 0 
317 1 317 0.499702 0.659946 0 0 -0.204402 0.0196974 -0.0591972 -0.0356142 0 0 -0.436232 0 0 
318 1 318 0.49969 0.699967 0 0 -0.227997 0.0335141 -0.0623349 -0.0536187 0 0 -0.116426 0 0 
319 1 319 0.499669 0.739991 0 0 -0.237096 0.0507622 -0.059722 -0.051182 0 0 -0.559274 0 0 
320 1 320 0.499645 0.780016 0 0 -0.254867 0.0314297 -0.0716253 -0.0407534 0 0 -1.03225 0 0 
321 1 321 0.499618 0.820043 0 0 -0.255318 0.0598932 -0.0626372 -0.0357542 0 0 -1.37394 0 0 
322 1 322 0.499589 0.86007 0 0 -0.258383 0.0308699 -0.0729326 -0.0281112 0 0 -1.67713 0 0 
323 1 323 0.499564 0.900095 0 0 -0.250779 0.0397847 -0.0676335 0.00417177 0 0 -2.4097 0 0 
324 1 324 0.499541 0.940119 0 0 -0.238543 0.0373226 -0.0645032 -0.0117001 0 0 -0.811332 0 0 