ITEM: TIMESTEP
0
ITEM: NUMBER OF ATOMS
6875
ITEM: BOX BOUNDS sm sm sm
0 4
0 2
0 0
ITEM: ATOMS id type tag x y z damage s11 s22 s33 s12 s13 s23 vx T ienergy 
1 1 1 0.0199951 0.0199974 0 0 -0.0668701 -0.0681 -0.04325 -0.0242338 0 0 0.0534537 0 0 
2 1 2 0.0199905 0.0599926 0 0 -0.118069 -0.0734875 -0.0613874 -0.035624 0 0 0.10799 0 0 
3 1 3 0.0199887 0.0999905 0 0 -0.163442 -0.0917191 -0.0817936 -0.0496732 0 0 0.198995 0 0 
4 1 4 0.0199866 0.139988 0 0 -0.215267 -0.106558 -0.103186 -0.0559873 0 0 0.234997 0 0 
5 1 5 0.0199827 0.179989 0 0 -0.258091 -0.120163 -0.121295 -0.0545435 0 0 0.317771 0 0 
6 1 6 0.0199807 0.219989 0 0 -0.289883 -0.129674 -0.134555 -0.0509768 0 0 0.322642 0 0 
7 1 7 0.0199788 0.259991 0 0 -0.312315 -0.137355 -0.144224 -0.0427458 0 0 0.256457 0 0 
8 1 8 0.0199783 0.299992 0 0 -0.327484 -0.145434 -0.151688 -0.0359733 0 0 0.140213 0 0 
9 1 9 0.0199766 0.339994 0 0 -0.337698 -0.14998 -0.156429 -0.0286738 0 0 0.0614194 0 0 
10 1 10 0.0199762 0.379996 0 0 -0.338698 -0.149149 -0.156481 -0.0204192 0 0 -0.0702534 0 0 
11 1 11 0.0199741 0.419998 0 0 -0.338414 -0.148699 -0.156244 -0.0137998 0 0 -0.107581 0 0 
12 1 12 0.0199712 0.46 0 0 -0.339352 -0.144549 -0.155215 -0.00484211 0 0 -0.188435 0 0 
13 1 13 0.0199661 0.500003 0 0 -0.342453 -0.149886 -0.157926 0.00548787 0 0 -0.272912 0 0 
14 1 14 0.0199635 0.540005 0 0 -0.341206 -0.144223 -0.155709 0.0140195 0 0 -0.0473081 0 0 
15 1 15 0.0199595 0.580007 0 0 -0.346426 -0.154537 -0.1607 0.0244841 0 0 0.283637 0 0 
16 1 16 0.0199532 0.620007 0 0 -0.344803 -0.150345 -0.158834 0.0301941 0 0 0.169572 0 0 
17 1 17 0.0199427 0.660008 0 0 -0.343357 -0.158997 -0.161149 0.0391607 0 0 -0.779558 0 0 
18 1 18 0.0199387 0.700008 0 0 -0.341352 -0.14785 -0.156925 0.0381542 0 0 -1.34623 0 0 
19 1 19 0.0199408 0.740011 0 0 -0.35437 -0.16531 -0.166715 0.0495265 0 0 -1.47563 0 0 
20 1 20 0.0199507 0.780011 0 0 -0.35203 -0.151841 -0.161636 0.0492426 0 0 -0.751771 0 0 
21 1 21 0.0199556 0.820015 0 0 -0.370477 -0.161287 -0.170595 0.0613077 0 0 -0.526832 0 0 
22 1 22 0.0199622 0.860016 0 0 -0.373587 -0.151051 -0.168306 0.0741067 0 0 -0.511845 0 0 
23 1 23 0.0199639 0.900023 0 0 -0.393167 -0.160034 -0.177482 0.0894118 0 0 -0.400451 0 0 
24 1 24 0.0199672 0.940027 0 0 -0.407019 -0.14543 -0.17725 0.114196 0 0 -0.226269 0 0 
25 1 25 0.019955 0.980044 0 0 -0.519752 -0.122346 -0.21604 0.123367 0 0 -0.67324 0 0 
26 1 26 0.0599949 0.0199936 0 0 -0.0680465 -0.114799 -0.0585988 -0.0315977 0 0 0.276259 0 0 
27 1 27 0.0599853 0.0599816 0 0 -0.11205 -0.113207 -0.0722015 -0.0348551 0 0 0.334083 0 0 
28 1 28 0.059973 0.0999739 0 0 -0.163513 -0.116259 -0.0896874 -0.0487148 0 0 0.539488 0 0 
29 1 29 0.0599622 0.139969 0 0 -0.200768 -0.109599 -0.0995025 -0.0538671 0 0 0.752895 0 0 
30 1 30 0.0599528 0.179968 0 0 -0.243839 -0.111644 -0.113987 -0.0502469 0 0 1.03456 0 0 
31 1 31 0.0599467 0.21997 0 0 -0.27934 -0.114668 -0.126356 -0.0456019 0 0 0.964507 0 0 
32 1 32 0.0599409 0.259974 0 0 -0.304299 -0.116542 -0.134972 -0.0367915 0 0 0.742905 0 0 
33 1 33 0.0599387 0.299977 0 0 -0.322422 -0.127359 -0.144262 -0.0289681 0 0 0.421967 0 0 
34 1 34 0.0599364 0.339982 0 0 -0.332493 -0.127344 -0.147492 -0.0232515 0 0 0.288652 0 0 
35 1 35 0.059937 0.379986 0 0 -0.342492 -0.131484 -0.152031 -0.0114146 0 0 0.178258 0 0 
36 1 36 0.0599374 0.419991 0 0 -0.351456 -0.133271 -0.155482 -0.00926842 0 0 0.290683 0 0 
37 1 37 0.0599404 0.459996 0 0 -0.35241 -0.126541 -0.15363 0.000805159 0 0 0.28082 0 0 
38 1 38 0.0599438 0.500003 0 0 -0.359386 -0.133946 -0.15825 0.00591998 0 0 0.315678 0 0 
39 1 39 0.0599474 0.540008 0 0 -0.357327 -0.127213 -0.155426 0.014694 0 0 0.294739 0 0 
40 1 40 0.0599503 0.580015 0 0 -0.357196 -0.137388 -0.158651 0.0225035 0 0 -0.0400254 0 0 
41 1 41 0.0599583 0.620021 0 0 -0.351632 -0.133487 -0.155612 0.0283544 0 0 0.216412 0 0 
42 1 42 0.0599683 0.660027 0 0 -0.362249 -0.151696 -0.164871 0.0385963 0 0 0.85801 0 0 
43 1 43 0.0599735 0.70003 0 0 -0.358961 -0.14376 -0.161268 0.0339874 0 0 2.02193 0 0 
44 1 44 0.0599678 0.740034 0 0 -0.365216 -0.151614 -0.165799 0.0463572 0 0 1.52172 0 0 
45 1 45 0.0599586 0.780038 0 0 -0.366589 -0.140554 -0.162687 0.0453956 0 0 1.31099 0 0 
46 1 46 0.0599475 0.820045 0 0 -0.373214 -0.127323 -0.160562 0.0530175 0 0 1.24114 0 0 
47 1 47 0.0599393 0.860054 0 0 -0.389721 -0.124155 -0.164855 0.0667318 0 0 1.16179 0 0 
48 1 48 0.059931 0.900064 0 0 -0.393917 -0.102885 -0.159358 0.0735962 0 0 1.26755 0 0 
49 1 49 0.0599188 0.940083 0 0 -0.45056 -0.0657908 -0.165648 0.0855391 0 0 0.997037 0 0 
50 1 50 0.0598917 0.980112 0 0 -0.413085 0.0132577 -0.128231 0.0244111 0 0 0.324735 0 0 
51 1 51 0.0999892 0.0199912 0 0 -0.0821725 -0.146785 -0.0734034 -0.0427655 0 0 0.0216669 0 0 
52 1 52 0.09997 0.0599756 0 0 -0.115171 -0.143332 -0.082873 -0.0498541 0 0 0.156054 0 0 
53 1 53 0.0999545 0.0999639 0 0 -0.151775 -0.127368 -0.0894867 -0.0516949 0 0 1.10873 0 0 
54 1 54 0.0999383 0.139958 0 0 -0.189677 -0.112851 -0.09699 -0.0561039 0 0 1.41904 0 0 
55 1 55 0.0999217 0.179956 0 0 -0.227801 -0.105283 -0.106801 -0.0512211 0 0 1.44337 0 0 
56 1 56 0.0999086 0.219958 0 0 -0.262975 -0.102443 -0.117181 -0.0442327 0 0 1.18803 0 0 
57 1 57 0.0998996 0.259962 0 0 -0.28863 -0.100502 -0.124795 -0.0339928 0 0 0.906557 0 0 
58 1 58 0.099894 0.299969 0 0 -0.311258 -0.107177 -0.134201 -0.0246123 0 0 0.637757 0 0 
59 1 59 0.0998896 0.339976 0 0 -0.324609 -0.109022 -0.139082 -0.0197034 0 0 0.582235 0 0 
60 1 60 0.0998864 0.379983 0 0 -0.335044 -0.110276 -0.142832 -0.00916379 0 0 0.417475 0 0 
61 1 61 0.0998828 0.419991 0 0 -0.347653 -0.116008 -0.14872 -0.00958476 0 0 0.413392 0 0 
62 1 62 0.0998776 0.46 0 0 -0.356089 -0.111036 -0.149834 0.000670494 0 0 0.269085 0 0 
63 1 63 0.0998721 0.500009 0 0 -0.36733 -0.119835 -0.156272 0.00334783 0 0 0.0990777 0 0 
64 1 64 0.0998677 0.540019 0 0 -0.372723 -0.115347 -0.156561 0.0123444 0 0 0.190575 0 0 
65 1 65 0.099865 0.580027 0 0 -0.382513 -0.130615 -0.164607 0.0215579 0 0 0.364416 0 0 
66 1 66 0.0998591 0.620034 0 0 -0.374318 -0.12663 -0.160697 0.0256134 0 0 0.561205 0 0 
67 1 67 0.0998506 0.66004 0 0 -0.364808 -0.134193 -0.160071 0.034631 0 0 -0.441171 0 0 
68 1 68 0.0998464 0.700046 0 0 -0.346027 -0.123305 -0.150543 0.0332938 0 0 -0.921095 0 0 
69 1 69 0.0998488 0.740052 0 0 -0.34845 -0.126327 -0.152293 0.0397905 0 0 -1.08122 0 0 
70 1 70 0.0998548 0.78006 0 0 -0.356824 -0.113186 -0.150763 0.0384508 0 0 -0.376286 0 0 
71 1 71 0.0998568 0.82007 0 0 -0.365728 -0.104827 -0.150936 0.0416099 0 0 -0.21041 0 0 
72 1 72 0.0998574 0.860083 0 0 -0.365748 -0.0819784 -0.143613 0.0518251 0 0 -0.337558 0 0 
73 1 73 0.0998544 0.900101 0 0 -0.390175 -0.053581 -0.142328 0.0491529 0 0 0.225048 0 0 
74 1 74 0.0998415 0.940126 0 0 -0.38099 -0.00888218 -0.125029 0.0243317 0 0 0.197399 0 0 
75 1 75 0.0998201 0.980152 0 0 -0.355389 -0.0141708 -0.118512 0.0201617 0 0 -0.555928 0 0 
76 1 76 0.139991 0.0199896 0 0 -0.0988383 -0.177215 -0.08851 -0.0492186 0 0 0.13623 0 0 
77 1 77 0.139969 0.0599708 0 0 -0.117543 -0.152771 -0.0866614 -0.0565244 0 0 0.448577 0 0 
78 1 78 0.139944 0.0999583 0 0 -0.141592 -0.131179 -0.0874523 -0.0584085 0 0 1.29293 0 0 
79 1 79 0.139918 0.13995 0 0 -0.177132 -0.116436 -0.0941209 -0.0635211 0 0 1.58041 0 0 
80 1 80 0.139896 0.179948 0 0 -0.212644 -0.100438 -0.100382 -0.0569594 0 0 1.72759 0 0 
81 1 81 0.139878 0.219949 0 0 -0.24451 -0.0924829 -0.108055 -0.0487151 0 0 1.53376 0 0 
82 1 82 0.139864 0.259954 0 0 -0.271386 -0.0879088 -0.115216 -0.0351585 0 0 1.22744 0 0 
83 1 83 0.139855 0.299961 0 0 -0.295176 -0.0884834 -0.12304 -0.0269106 0 0 0.969395 0 0 
84 1 84 0.139849 0.33997 0 0 -0.318413 -0.095697 -0.132818 -0.02007 0 0 0.942474 0 0 
85 1 85 0.139845 0.379979 0 0 -0.338322 -0.0992809 -0.140357 -0.012239 0 0 1.03519 0 0 
86 1 86 0.139843 0.419989 0 0 -0.358515 -0.106998 -0.149316 -0.0109607 0 0 1.18019 0 0 
87 1 87 0.139842 0.459998 0 0 -0.368685 -0.105309 -0.15204 -0.00192596 0 0 1.02837 0 0 
88 1 88 0.139844 0.50001 0 0 -0.38287 -0.112782 -0.158998 0.00166127 0 0 0.934624 0 0 
89 1 89 0.139846 0.54002 0 0 -0.384412 -0.110823 -0.158863 0.0078843 0 0 0.71762 0 0 
90 1 90 0.139849 0.580032 0 0 -0.381371 -0.114675 -0.159121 0.0176597 0 0 0.23849 0 0 
91 1 91 0.139859 0.620043 0 0 -0.374108 -0.115933 -0.157194 0.0204155 0 0 0.489218 0 0 
92 1 92 0.139871 0.660054 0 0 -0.382304 -0.126005 -0.163063 0.0259233 0 0 1.29012 0 0 
93 1 93 0.139877 0.700063 0 0 -0.387295 -0.124441 -0.164168 0.023616 0 0 2.13154 0 0 
94 1 94 0.139872 0.740073 0 0 -0.381411 -0.125941 -0.162759 0.0287706 0 0 1.73401 0 0 
95 1 95 0.13986 0.780082 0 0 -0.36389 -0.0941535 -0.146924 0.0233322 0 0 1.46871 0 0 
96 1 96 0.139845 0.820096 0 0 -0.368189 -0.0930693 -0.147953 0.0292432 0 0 1.17067 0 0 
97 1 97 0.139832 0.860111 0 0 -0.382261 -0.0628799 -0.142777 0.0307767 0 0 1.39129 0 0 
98 1 98 0.139815 0.900132 0 0 -0.390525 -0.0420433 -0.138734 0.0193121 0 0 1.3592 0 0 
99 1 99 0.139795 0.940155 0 0 -0.384951 -0.0300097 -0.133096 0.0125868 0 0 1.2028 0 0 
100 1 100 0.139772 0.980181 0 0 -0.375548 -0.00372247 -0.121636 0.0052936 0 0 0.738923 0 0 
101 1 101 0.179985 0.0199891 0 0 -0.100926 -0.185756 -0.0919076 -0.0567983 0 0 0.105115 0 0 
102 1 102 0.179955 0.0599695 0 0 -0.121758 -0.162011 -0.0909765 -0.0633703 0 0 0.385716 0 0 
103 1 103 0.179928 0.0999555 0 0 -0.149821 -0.141376 -0.093367 -0.0669601 0 0 1.35811 0 0 
104 1 104 0.179898 0.139946 0 0 -0.174507 -0.123774 -0.095636 -0.0715816 0 0 1.77439 0 0 
105 1 105 0.179869 0.179943 0 0 -0.194875 -0.0959548 -0.0932411 -0.0650562 0 0 1.99223 0 0 
106 1 106 0.179844 0.219944 0 0 -0.22359 -0.0846695 -0.0988294 -0.0549526 0 0 1.81347 0 0 
107 1 107 0.179826 0.259949 0 0 -0.253343 -0.0768309 -0.105865 -0.0431867 0 0 1.49912 0 0 
108 1 108 0.179812 0.299957 0 0 -0.286193 -0.0799745 -0.117426 -0.0331827 0 0 1.2088 0 0 
109 1 109 0.179802 0.339967 0 0 -0.312198 -0.0832561 -0.126832 -0.0272215 0 0 1.19816 0 0 
110 1 110 0.179794 0.379978 0 0 -0.332559 -0.0893993 -0.135337 -0.0181217 0 0 1.17016 0 0 
111 1 111 0.179785 0.41999 0 0 -0.348116 -0.0907332 -0.140754 -0.020026 0 0 1.23997 0 0 
112 1 112 0.179776 0.460002 0 0 -0.366148 -0.0979464 -0.148861 -0.0102796 0 0 0.998203 0 0 
113 1 113 0.179768 0.500015 0 0 -0.374451 -0.0981903 -0.151608 -0.00941703 0 0 0.677918 0 0 
114 1 114 0.179762 0.540027 0 0 -0.382013 -0.104379 -0.156023 0.00192923 0 0 0.501667 0 0 
115 1 115 0.179759 0.580039 0 0 -0.38984 -0.107103 -0.159412 0.0090125 0 0 0.690145 0 0 
116 1 116 0.179755 0.62005 0 0 -0.391609 -0.111131 -0.161276 0.0191622 0 0 0.575119 0 0 
117 1 117 0.179749 0.660061 0 0 -0.367883 -0.104563 -0.151544 0.0234397 0 0 -0.371928 0 0 
118 1 118 0.179746 0.700072 0 0 -0.340204 -0.0854366 -0.136518 0.0238053 0 0 -1.00909 0 0 
119 1 119 0.179749 0.740084 0 0 -0.345434 -0.087286 -0.138789 0.0243544 0 0 -1.1948 0 0 
120 1 120 0.179753 0.780098 0 0 -0.351954 -0.0738261 -0.136563 0.0193077 0 0 -0.410662 0 0 
121 1 121 0.179754 0.820113 0 0 -0.350864 -0.0649192 -0.133349 0.0242032 0 0 -0.352193 0 0 
122 1 122 0.179748 0.860132 0 0 -0.340659 -0.0330311 -0.119832 0.0132849 0 0 0.122672 0 0 
123 1 123 0.179738 0.900154 0 0 -0.346696 -0.023776 -0.118797 0.0138588 0 0 0.130547 0 0 
124 1 124 0.179724 0.940178 0 0 -0.343156 -0.00661251 -0.112175 0.00124831 0 0 0.264559 0 0 
125 1 125 0.179705 0.980203 0 0 -0.329806 0.00685848 -0.103565 0.000598165 0 0 -0.0405554 0 0 
126 1 126 0.219986 0.0199889 0 0 -0.106756 -0.187944 -0.0944812 -0.0667483 0 0 0.289739 0 0 
127 1 127 0.219954 0.0599691 0 0 -0.126358 -0.166676 -0.0939451 -0.0712484 0 0 0.557376 0 0 
128 1 128 0.219918 0.0999545 0 0 -0.141 -0.142728 -0.0909646 -0.0736579 0 0 1.35478 0 0 
129 1 129 0.219881 0.139945 0 0 -0.162553 -0.122567 -0.0914113 -0.0759972 0 0 1.75681 0 0 
130 1 130 0.219847 0.17994 0 0 -0.189334 -0.101936 -0.0933819 -0.0730559 0 0 2.07504 0 0 
131 1 131 0.219817 0.21994 0 0 -0.222308 -0.0898702 -0.100085 -0.062799 0 0 1.85256 0 0 
132 1 132 0.219793 0.259944 0 0 -0.254699 -0.081849 -0.107906 -0.0542359 0 0 1.60611 0 0 
133 1 133 0.219775 0.299952 0 0 -0.284963 -0.0779423 -0.116374 -0.0432359 0 0 1.45521 0 0 
134 1 134 0.219761 0.339961 0 0 -0.310516 -0.0798682 -0.125203 -0.0372468 0 0 1.66247 0 0 
135 1 135 0.219751 0.379972 0 0 -0.339901 -0.0864103 -0.136738 -0.0297119 0 0 1.805 0 0 
136 1 136 0.219743 0.419985 0 0 -0.364374 -0.0948011 -0.147287 -0.029301 0 0 1.80868 0 0 
137 1 137 0.219738 0.459997 0 0 -0.376036 -0.0953982 -0.151226 -0.0192667 0 0 1.60783 0 0 
138 1 138 0.219737 0.50001 0 0 -0.388747 -0.10084 -0.157058 -0.0158652 0 0 1.35956 0 0 
139 1 139 0.219738 0.540024 0 0 -0.386505 -0.0949562 -0.154445 -0.00294575 0 0 0.907458 0 0 
140 1 140 0.219742 0.580038 0 0 -0.378621 -0.0968021 -0.152504 0.0042961 0 0 0.364955 0 0 
141 1 141 0.219752 0.620053 0 0 -0.364951 -0.08095 -0.143024 0.0134414 0 0 0.349608 0 0 
142 1 142 0.219766 0.660069 0 0 -0.388384 -0.0974923 -0.15586 0.0167722 0 0 1.0693 0 0 
143 1 143 0.219774 0.700083 0 0 -0.403869 -0.0976522 -0.160887 0.0179643 0 0 1.82919 0 0 
144 1 144 0.219769 0.740099 0 0 -0.390032 -0.0869413 -0.153001 0.0178763 0 0 1.5557 0 0 
145 1 145 0.219756 0.780114 0 0 -0.372113 -0.0671391 -0.140885 0.0112199 0 0 1.30574 0 0 
146 1 146 0.21974 0.820133 0 0 -0.374964 -0.0611098 -0.139861 0.0170415 0 0 0.873315 0 0 
147 1 147 0.219723 0.860152 0 0 -0.375722 -0.042275 -0.134058 0.00448201 0 0 1.53992 0 0 
148 1 148 0.219702 0.900175 0 0 -0.373116 -0.0359521 -0.131187 0.00741375 0 0 1.0198 0 0 
149 1 149 0.219681 0.940197 0 0 -0.367006 -0.0220241 -0.124779 -0.00540199 0 0 1.12867 0 0 
150 1 150 0.219659 0.980223 0 0 -0.375662 -0.0115171 -0.124184 -0.00365376 0 0 1.11036 0 0 
151 1 151 0.25998 0.0199895 0 0 -0.100998 -0.181246 -0.0904879 -0.0776861 0 0 0.320347 0 0 
152 1 152 0.25994 0.0599699 0 0 -0.123983 -0.164546 -0.0924982 -0.0793604 0 0 0.602121 0 0 
153 1 153 0.259903 0.0999555 0 0 -0.147758 -0.147823 -0.0947639 -0.0827895 0 0 1.40133 0 0 
154 1 154 0.259863 0.139945 0 0 -0.169067 -0.132416 -0.0966583 -0.0855309 0 0 1.67517 0 0 
155 1 155 0.259823 0.179939 0 0 -0.190011 -0.111804 -0.0967646 -0.0861024 0 0 1.98062 0 0 
156 1 156 0.259787 0.219937 0 0 -0.221835 -0.101781 -0.103755 -0.0760974 0 0 1.955 0 0 
157 1 157 0.259757 0.25994 0 0 -0.251882 -0.0878701 -0.108932 -0.0679824 0 0 1.88819 0 0 
158 1 158 0.259733 0.299947 0 0 -0.28635 -0.084743 -0.118998 -0.0573693 0 0 1.79474 0 0 
159 1 159 0.259714 0.339956 0 0 -0.318103 -0.0850435 -0.129294 -0.0507101 0 0 1.7576 0 0 
160 1 160 0.259698 0.379968 0 0 -0.339488 -0.0857762 -0.136399 -0.044942 0 0 1.63882 0 0 
161 1 161 0.259684 0.419981 0 0 -0.352243 -0.0849252 -0.140222 -0.0413728 0 0 1.55186 0 0 
162 1 162 0.259671 0.459994 0 0 -0.360778 -0.0836486 -0.142557 -0.0320139 0 0 1.28127 0 0 
163 1 163 0.25966 0.500009 0 0 -0.363571 -0.0822065 -0.142994 -0.0265766 0 0 0.792685 0 0 
164 1 164 0.259654 0.540024 0 0 -0.36262 -0.0732998 -0.139823 -0.0115728 0 0 0.463529 0 0 
165 1 165 0.259651 0.58004 0 0 -0.383359 -0.0817814 -0.149204 -0.00280617 0 0 0.548157 0 0 
166 1 166 0.259647 0.620055 0 0 -0.38675 -0.0775031 -0.148917 0.0166628 0 0 0.162255 0 0 
167 1 167 0.259642 0.660071 0 0 -0.355394 -0.0554174 -0.131753 0.0175935 0 0 -0.641361 0 0 
168 1 168 0.259639 0.700089 0 0 -0.33713 -0.04799 -0.123504 0.0240277 0 0 -1.49732 0 0 
169 1 169 0.259643 0.740107 0 0 -0.337883 -0.0394704 -0.121011 0.0243598 0 0 -1.54072 0 0 
170 1 170 0.259647 0.780127 0 0 -0.351563 -0.044331 -0.126963 0.014153 0 0 -0.46985 0 0 
171 1 171 0.259645 0.820147 0 0 -0.348375 -0.0362145 -0.123328 0.0188351 0 0 -0.532535 0 0 
172 1 172 0.259639 0.860169 0 0 -0.335084 -0.0177376 -0.113136 0.00289077 0 0 0.0633024 0 0 
173 1 173 0.259628 0.900192 0 0 -0.336532 -0.019674 -0.114218 0.00841072 0 0 -0.208881 0 0 
174 1 174 0.259613 0.940216 0 0 -0.335879 -0.00178745 -0.108291 -0.00806384 0 0 0.368913 0 0 
175 1 175 0.259592 0.980242 0 0 -0.328802 0.00580289 -0.10358 -0.0026464 0 0 0.149601 0 0 
176 1 176 0.29998 0.0199898 0 0 -0.105356 -0.177639 -0.0907296 -0.0901464 0 0 0.459093 0 0 
177 1 177 0.299938 0.0599708 0 0 -0.134606 -0.167612 -0.0968936 -0.0884107 0 0 0.632161 0 0 
178 1 178 0.299893 0.0999562 0 0 -0.153696 -0.153107 -0.0983637 -0.0925787 0 0 1.16564 0 0 
179 1 179 0.299847 0.139945 0 0 -0.176157 -0.142813 -0.102268 -0.0934505 0 0 1.45667 0 0 
180 1 180 0.299803 0.179937 0 0 -0.197158 -0.126735 -0.10385 -0.0967248 0 0 1.94896 0 0 
181 1 181 0.299761 0.219933 0 0 -0.225534 -0.118032 -0.110159 -0.0885262 0 0 2.04867 0 0 
182 1 182 0.299725 0.259934 0 0 -0.256273 -0.101705 -0.114783 -0.0829236 0 0 1.99016 0 0 
183 1 183 0.299695 0.299939 0 0 -0.290998 -0.0973267 -0.124526 -0.0718066 0 0 1.87398 0 0 
184 1 184 0.299672 0.339947 0 0 -0.320871 -0.0926585 -0.13262 -0.0648496 0 0 1.857 0 0 
185 1 185 0.299654 0.379957 0 0 -0.347829 -0.0900879 -0.140454 -0.055271 0 0 1.84427 0 0 
186 1 186 0.299641 0.41997 0 0 -0.363695 -0.0885875 -0.145073 -0.0486106 0 0 1.82595 0 0 
187 1 187 0.299633 0.459983 0 0 -0.372317 -0.082791 -0.145987 -0.0385164 0 0 1.60672 0 0 
188 1 188 0.29963 0.499999 0 0 -0.382164 -0.0807968 -0.148514 -0.0291421 0 0 1.32004 0 0 
189 1 189 0.29963 0.540015 0 0 -0.376825 -0.06828 -0.142774 -0.0119056 0 0 0.897316 0 0 
190 1 190 0.299633 0.580034 0 0 -0.358058 -0.0497469 -0.13079 -0.00830333 0 0 0.436835 0 0 
191 1 191 0.299642 0.620055 0 0 -0.357632 -0.0433492 -0.128599 0.0116449 0 0 0.0324616 0 0 
192 1 192 0.299656 0.660077 0 0 -0.389642 -0.0510605 -0.141351 0.00935783 0 0 0.83921 0 0 
193 1 193 0.299663 0.700099 0 0 -0.419678 -0.0608546 -0.154144 0.0140443 0 0 1.59454 0 0 
194 1 194 0.299659 0.740122 0 0 -0.414051 -0.0571941 -0.151161 0.0173019 0 0 1.26793 0 0 
195 1 195 0.299646 0.780143 0 0 -0.393205 -0.0482816 -0.141603 0.00764777 0 0 1.31084 0 0 
196 1 196 0.299629 0.820166 0 0 -0.390548 -0.044747 -0.13961 0.0135884 0 0 0.957909 0 0 
197 1 197 0.299612 0.860188 0 0 -0.391717 -0.0413537 -0.138903 0.00136424 0 0 1.47246 0 0 
198 1 198 0.299591 0.900211 0 0 -0.379139 -0.0317115 -0.131763 0.00866032 0 0 0.750858 0 0 
199 1 199 0.29957 0.940235 0 0 -0.36733 -0.0141389 -0.12235 -0.0106332 0 0 1.12723 0 0 
200 1 200 0.299546 0.980261 0 0 -0.372323 -0.0174789 -0.125021 0.000287399 0 0 0.728479 0 0 
201 1 201 0.339974 0.0199902 0 0 -0.0977808 -0.170836 -0.0861158 -0.104234 0 0 0.391083 0 0 
202 1 202 0.339924 0.0599717 0 0 -0.127544 -0.162346 -0.0929383 -0.100362 0 0 0.50209 0 0 
203 1 203 0.339877 0.0999571 0 0 -0.154182 -0.156519 -0.0996158 -0.103704 0 0 1.02811 0 0 
204 1 204 0.339829 0.139945 0 0 -0.174404 -0.146489 -0.102886 -0.104558 0 0 1.19903 0 0 
205 1 205 0.339779 0.179936 0 0 -0.201677 -0.143382 -0.110644 -0.109366 0 0 1.63784 0 0 
206 1 206 0.339732 0.21993 0 0 -0.232326 -0.133459 -0.117295 -0.10233 0 0 1.91089 0 0 
207 1 207 0.33969 0.259929 0 0 -0.264609 -0.122549 -0.124152 -0.097222 0 0 2.00766 0 0 
208 1 208 0.339654 0.299931 0 0 -0.293818 -0.109708 -0.129406 -0.0844486 0 0 1.98145 0 0 
209 1 209 0.339625 0.339938 0 0 -0.320929 -0.102436 -0.135778 -0.0770428 0 0 2.01665 0 0 
210 1 210 0.339601 0.379948 0 0 -0.332829 -0.0838935 -0.133644 -0.06516 0 0 1.76362 0 0 
211 1 211 0.339583 0.419961 0 0 -0.343463 -0.0780336 -0.135181 -0.0564793 0 0 1.45301 0 0 
212 1 212 0.339567 0.459976 0 0 -0.34618 -0.0646599 -0.131765 -0.0467521 0 0 1.1109 0 0 
213 1 213 0.339553 0.499994 0 0 -0.340092 -0.0458179 -0.123766 -0.036258 0 0 0.73023 0 0 
214 1 214 0.339545 0.540012 0 0 -0.348339 -0.0422386 -0.125261 -0.0183408 0 0 0.462843 0 0 
215 1 215 0.339541 0.580033 0 0 -0.371382 -0.0369806 -0.130968 -0.0132939 0 0 0.710102 0 0 
216 1 216 0.339535 0.620055 0 0 -0.384569 -0.0328734 -0.133885 0.00929063 0 0 0.257584 0 0 
217 1 217 0.339528 0.660079 0 0 -0.360466 -0.0144232 -0.120221 0.0112861 0 0 -0.635707 0 0 
218 1 218 0.339524 0.700103 0 0 -0.333868 -0.000490681 -0.107212 0.0184989 0 0 -1.40181 0 0 
219 1 219 0.339528 0.740129 0 0 -0.342239 -0.0029124 -0.110675 0.0191572 0 0 -1.37971 0 0 
220 1 220 0.339532 0.780154 0 0 -0.364034 -0.0208883 -0.123441 0.0114078 0 0 -0.323638 0 0 
221 1 221 0.339531 0.820178 0 0 -0.352725 -0.0130226 -0.117282 0.0137985 0 0 -0.294364 0 0 
222 1 222 0.339525 0.860203 0 0 -0.345423 -0.0133426 -0.115051 0.0012159 0 0 0.227503 0 0 
223 1 223 0.339515 0.900228 0 0 -0.348615 -0.00819221 -0.114418 0.00768595 0 0 -0.11187 0 0 
224 1 224 0.3395 0.940254 0 0 -0.344925 0.00057757 -0.110434 -0.0113497 0 0 0.531779 0 0 
225 1 225 0.339481 0.98028 0 0 -0.324992 0.00105884 -0.103875 0.00371689 0 0 -0.359294 0 0 
226 1 226 0.379974 0.01999 0 0 -0.106105 -0.175851 -0.0903936 -0.11846 0 0 0.351111 0 0 
227 1 227 0.379921 0.0599712 0 0 -0.137731 -0.167128 -0.09774 -0.111766 0 0 0.393034 0 0 
228 1 228 0.379866 0.0999565 0 0 -0.160193 -0.161935 -0.103283 -0.114 0 0 0.700075 0 0 
229 1 229 0.379812 0.139944 0 0 -0.182298 -0.155578 -0.108337 -0.114884 0 0 0.87566 0 0 
230 1 230 0.379759 0.179934 0 0 -0.205948 -0.154691 -0.115646 -0.119372 0 0 1.50132 0 0 
231 1 231 0.379708 0.219926 0 0 -0.224095 -0.140159 -0.116807 -0.112252 0 0 1.88669 0 0 
232 1 232 0.37966 0.259922 0 0 -0.253788 -0.131141 -0.123442 -0.108098 0 0 2.16754 0 0 
233 1 233 0.379619 0.299922 0 0 -0.280272 -0.114915 -0.126734 -0.0910464 0 0 2.07585 0 0 
234 1 234 0.379586 0.339927 0 0 -0.302373 -0.100211 -0.12911 -0.0817021 0 0 2.00876 0 0 
235 1 235 0.37956 0.379936 0 0 -0.323914 -0.085291 -0.131232 -0.0659352 0 0 1.72353 0 0 
236 1 236 0.379542 0.419948 0 0 -0.340071 -0.0736632 -0.132688 -0.0557558 0 0 1.55276 0 0 
237 1 237 0.37953 0.459963 0 0 -0.349053 -0.0619227 -0.131803 -0.0430007 0 0 1.44598 0 0 
238 1 238 0.379524 0.499981 0 0 -0.355132 -0.0429042 -0.127652 -0.0343043 0 0 1.42902 0 0 
239 1 239 0.379521 0.540002 0 0 -0.364564 -0.0382102 -0.129171 -0.020899 0 0 1.11963 0 0 
240 1 240 0.379521 0.580026 0 0 -0.346814 -0.00980572 -0.114355 -0.0185323 0 0 0.651132 0 0 
241 1 241 0.379527 0.620052 0 0 -0.352408 -0.00223495 -0.113726 -0.00445567 0 0 0.394892 0 0 
242 1 242 0.379539 0.660081 0 0 -0.399453 -0.0130903 -0.132312 -0.00753301 0 0 1.17444 0 0 
243 1 243 0.379544 0.700109 0 0 -0.441531 -0.0323155 -0.151999 0.000180023 0 0 1.97578 0 0 
244 1 244 0.379539 0.740138 0 0 -0.437372 -0.0312174 -0.150307 0.00153022 0 0 1.90165 0 0 
245 1 245 0.379527 0.780165 0 0 -0.413486 -0.0271455 -0.14133 -0.00130076 0 0 1.87879 0 0 
246 1 246 0.379512 0.820192 0 0 -0.408045 -0.0263699 -0.139333 0.00179134 0 0 1.56899 0 0 
247 1 247 0.379495 0.860218 0 0 -0.413581 -0.0327311 -0.143164 -0.00874285 0 0 1.97511 0 0 
248 1 248 0.379476 0.900245 0 0 -0.391839 -0.0179048 -0.131419 0.00227605 0 0 1.00843 0 0 
249 1 249 0.379456 0.940271 0 0 -0.368434 -0.00846758 -0.120887 -0.0146389 0 0 1.05545 0 0 
250 1 250 0.379436 0.980297 0 0 -0.358997 -0.0156858 -0.120166 0.0034728 0 0 -0.111376 0 0 
251 1 251 0.419967 0.0199897 0 0 -0.100395 -0.177959 -0.0892372 -0.132674 0 0 0.0984151 0 0 
252 1 252 0.419906 0.0599705 0 0 -0.1286 -0.164824 -0.0940687 -0.123846 0 0 -0.00200515 0 0 
253 1 253 0.41985 0.0999556 0 0 -0.158042 -0.162284 -0.102704 -0.124219 0 0 0.28008 0 0 
254 1 254 0.419794 0.139942 0 0 -0.175619 -0.156488 -0.106487 -0.122622 0 0 0.494066 0 0 
255 1 255 0.419737 0.179932 0 0 -0.193675 -0.152847 -0.111117 -0.127143 0 0 1.30276 0 0 
256 1 256 0.419681 0.219923 0 0 -0.2154 -0.143077 -0.114955 -0.120214 0 0 1.76804 0 0 
257 1 257 0.419628 0.259919 0 0 -0.239223 -0.133694 -0.119589 -0.11675 0 0 2.20788 0 0 
258 1 258 0.419581 0.299918 0 0 -0.261267 -0.113777 -0.120271 -0.0974251 0 0 2.21385 0 0 
259 1 259 0.419543 0.339922 0 0 -0.284556 -0.0977886 -0.122615 -0.087107 0 0 2.18295 0 0 
260 1 260 0.419511 0.37993 0 0 -0.29512 -0.0769679 -0.119319 -0.0691708 0 0 1.72217 0 0 
261 1 261 0.419487 0.419942 0 0 -0.299793 -0.0558668 -0.114045 -0.0583867 0 0 1.38906 0 0 
262 1 262 0.419466 0.459958 0 0 -0.305879 -0.037981 -0.110257 -0.0472237 0 0 1.02815 0 0 
263 1 263 0.419449 0.499977 0 0 -0.310251 -0.0211911 -0.106273 -0.0406425 0 0 0.633674 0 0 
264 1 264 0.419437 0.539998 0 0 -0.325601 -0.012315 -0.108349 -0.0294645 0 0 0.664012 0 0 
265 1 265 0.419429 0.580022 0 0 -0.359748 -0.00681928 -0.117546 -0.0262553 0 0 1.10152 0 0 
266 1 266 0.419418 0.620048 0 0 -0.388962 -0.00992704 -0.127929 -0.0121972 0 0 0.902509 0 0 
267 1 267 0.419407 0.660076 0 0 -0.361922 0.0178895 -0.110317 -0.00780243 0 0 -0.00314012 0 0 
268 1 268 0.4194 0.700106 0 0 -0.32877 0.0362685 -0.093779 0.000534898 0 0 -0.732571 0 0 
269 1 269 0.419404 0.740137 0 0 -0.342292 0.030602 -0.0999338 -0.00107893 0 0 -0.511887 0 0 
270 1 270 0.419409 0.780168 0 0 -0.368205 0.0111041 -0.114512 0.000558055 0 0 0.285054 0 0 
271 1 271 0.419411 0.820198 0 0 -0.357503 0.013769 -0.110222 -0.000918206 0 0 0.309973 0 0 
272 1 272 0.419405 0.860227 0 0 -0.348945 0.0111992 -0.10831 -0.0123284 0 0 0.696338 0 0 
273 1 273 0.419397 0.900256 0 0 -0.351552 0.0123565 -0.108775 -0.00247351 0 0 0.077304 0 0 
274 1 274 0.419386 0.940284 0 0 -0.348532 0.00387521 -0.110538 -0.0160116 0 0 0.438732 0 0 
275 1 275 0.419372 0.98031 0 0 -0.324082 0.00378548 -0.102708 0.00419988 0 0 -0.943584 0 0 
276 1 276 0.459968 0.0199892 0 0 -0.108038 -0.186619 -0.0944706 -0.144446 0 0 0.0917285 0 0 
277 1 277 0.459904 0.0599692 0 0 -0.132082 -0.169464 -0.0966756 -0.132786 0 0 -0.00104823 0 0 
278 1 278 0.45984 0.0999539 0 0 -0.150776 -0.160282 -0.0997304 -0.13142 0 0 0.123236 0 0 
279 1 279 0.459779 0.13994 0 0 -0.170038 -0.153158 -0.103628 -0.127608 0 0 0.315931 0 0 
280 1 280 0.459719 0.17993 0 0 -0.189563 -0.15139 -0.10933 -0.130888 0 0 1.18862 0 0 
281 1 281 0.45966 0.219921 0 0 -0.202093 -0.138272 -0.10914 -0.123333 0 0 1.70686 0 0 
282 1 282 0.459603 0.259916 0 0 -0.221223 -0.130049 -0.112641 -0.118924 0 0 2.33509 0 0 
283 1 283 0.459552 0.299914 0 0 -0.232765 -0.106285 -0.108716 -0.0986532 0 0 2.34216 0 0 
284 1 284 0.45951 0.339917 0 0 -0.245369 -0.0852352 -0.106005 -0.0874999 0 0 2.23184 0 0 
285 1 285 0.459477 0.379923 0 0 -0.263974 -0.0680081 -0.106445 -0.0672575 0 0 1.82804 0 0 
286 1 286 0.459452 0.419934 0 0 -0.283502 -0.0504706 -0.107083 -0.0563653 0 0 1.61802 0 0 
287 1 287 0.459435 0.459949 0 0 -0.303181 -0.041453 -0.110508 -0.0442187 0 0 1.40415 0 0 
288 1 288 0.459424 0.499967 0 0 -0.323805 -0.0281452 -0.112859 -0.0409329 0 0 1.47898 0 0 
289 1 289 0.459415 0.539988 0 0 -0.344031 -0.0211787 -0.117111 -0.0308351 0 0 1.32933 0 0 
290 1 290 0.459409 0.580013 0 0 -0.329667 0.00804514 -0.103119 -0.0316327 0 0 0.903191 0 0 
291 1 291 0.459409 0.620042 0 0 -0.340741 0.0152047 -0.104379 -0.0287283 0 0 0.944814 0 0 
292 1 292 0.459415 0.660073 0 0 -0.398176 0.00861505 -0.124931 -0.0266602 0 0 1.62199 0 0 
293 1 293 0.459418 0.700105 0 0 -0.453048 -0.0136432 -0.1497 -0.0187729 0 0 2.52142 0 0 
294 1 294 0.459412 0.740138 0 0 -0.44703 -0.00498804 -0.144983 -0.0206237 0 0 2.7151 0 0 
295 1 295 0.4594 0.78017 0 0 -0.418897 0.00372543 -0.133156 -0.0147339 0 0 2.41718 0 0 
296 1 296 0.459388 0.820203 0 0 -0.416794 0.000891504 -0.133389 -0.0168525 0 0 2.17774 0 0 
297 1 297 0.459373 0.860233 0 0 -0.422161 -0.00767785 -0.137874 -0.0261405 0 0 2.44605 0 0 
298 1 298 0.459356 0.900264 0 0 -0.397261 -0.0005834 -0.127601 -0.011136 0 0 1.15192 0 0 
299 1 299 0.45934 0.940293 0 0 -0.371367 0.000331096 -0.119004 -0.0217899 0 0 0.895048 0 0 
300 1 300 0.459327 0.98032 0 0 -0.361478 -0.00741795 -0.118306 -0.000928026 0 0 -0.584927 0 0 
301 1 301 0.499961 0.0199892 0 0 -0.100392 -0.185275 -0.0915867 -0.155431 0 0 -0.082358 0 0 
302 1 302 0.49989 0.0599689 0 0 -0.124387 -0.168255 -0.0938193 -0.14244 0 0 -0.23015 0 0 
303 1 303 0.499825 0.0999533 0 0 -0.151908 -0.161985 -0.100642 -0.137571 0 0 -0.0506748 0 0 
304 1 304 0.499763 0.13994 0 0 -0.162094 -0.145614 -0.0986586 -0.131766 0 0 0.227438 0 0 
305 1 305 0.499699 0.17993 0 0 -0.174098 -0.141495 -0.101191 -0.134168 0 0 1.17207 0 0 
306 1 306 0.499637 0.219922 0 0 -0.182208 -0.127367 -0.0992587 -0.126576 0 0 1.74524 0 0 
307 1 307 0.499577 0.259917 0 0 -0.193013 -0.11752 -0.0995633 -0.123109 0 0 2.45928 0 0 
308 1 308 0.499522 0.299914 0 0 -0.207032 -0.0994956 -0.0982756 -0.103083 0 0 2.5199 0 0 
309 1 309 0.499476 0.339917 0 0 -0.226569 -0.0829715 -0.0992417 -0.0931812 0 0 2.51476 0 0 
310 1 310 0.499436 0.379922 0 0 -0.239498 -0.0652491 -0.0977014 -0.0733618 0 0 1.92694 0 0 
311 1 311 0.499404 0.419933 0 0 -0.249624 -0.0402741 -0.0929373 -0.0669554 0 0 1.48486 0 0 
312 1 312 0.499377 0.459947 0 0 -0.269433 -0.0324997 -0.0968046 -0.0534432 0 0 0.939385 0 0 
313 1 313 0.499354 0.499965 0 0 -0.275155 -0.0103415 -0.0915334 -0.0523025 0 0 0.731978 0 0 
314 1 314 0.499334 0.539985 0 0 -0.300763 -0.0035431 -0.0975646 -0.0449558 0 0 0.782913 0 0 
315 1 315 0.499318 0.580009 0 0 -0.351847 -0.00611449 -0.114782 -0.0393924 0 0 1.04249 0 0 
316 1 316 0.499301 0.620035 0 0 -0.380657 -0.00352728 -0.123203 -0.0326469 0 0 1.32057 0 0 
317 1 317 0.499283 0.660064 0 0 -0.344717 0.0356125 -0.0991046 -0.0228159 0 0 0.418364 0 0 
318 1 318 0.499273 0.700096 0 0 -0.310117 0.0589582 -0.0805134 -0.0136695 0 0 -0.298399 0 0 
319 1 319 0.499275 0.74013 0 0 -0.323742 0.0623542 -0.0837929 -0.0161878 0 0 0.0131435 0 0 
320 1 320 0.499281 0.780164 0 0 -0.353998 0.0470961 -0.0984024 -0.00919758 0 0 0.444243 0 0 
321 1 321 0.499285 0.820199 0 0 -0.346294 0.0465453 -0.096103 -0.0158562 0 0 0.359236 0 0 
322 1 322 0.499281 0.860233 0 0 -0.332442 0.047227 -0.0914472 -0.0276475 0 0 0.562011 0 0 
323 1 323 0.499275 0.900265 0 0 -0.346499 0.0342659 -0.100117 -0.0159961 0 0 -0.0962135 0 0 
324 1 324 0.499268 0.940296 0 0 -0.35567 0.0172418 -0.108532 -0.0217565 0 0 0.166893 0 0 
325 1 325 0.49926 0.980325 0 0 -0.33465 0.0153538 -0.102384 -0.000186048 0 0 -1.22212 0 0 
326 1 326 0.539963 0.0199892 0 0 -0.101912 -0.184492 -0.0918229 -0.16399 0 0 -0.00348814 0 0 
327 1 327 0.539889 0.0599687 0 0 -0.120362 -0.168916 -0.0927422 -0.150861 0 0 -0.0395435 0 0 
328 1 328 0.539817 0.0999529 0 0 -0.137806 -0.154498 -0.0937156 -0.144435 0 0 0.0394536 0 0 
329 1 329 0.539749 0.13994 0 0 -0.158926 -0.141539 -0.096334 -0.137163 0 0 0.347024 0 0 
330 1 330 0.539684 0.179931 0 0 -0.176712 -0.138066 -0.100929 -0.137224 0 0 1.34999 0 0 