ITEM: TIMESTEP
0
ITEM: NUMBER OF ATOMS
7127
ITEM: BOX BOUNDS sm sm sm
0 4
0 2
0 0
ITEM: ATOMS id type tag x y z vx 
0 1 0 0 0 0 0 
1 1 1 0 0.04 0 0 
2 1 2 0 0.08 0 0 
3 1 3 0 0.12 0 0 
4 1 4 0 0.16 0 0 
5 1 5 0 0.2 0 0 
6 1 6 0 0.24 0 0 
7 1 7 0 0.28 0 0 
8 1 8 0 0.32 0 0 
9 1 9 0 0.36 0 0 
10 1 10 0 0.4 0 0 
11 1 11 0 0.44 0 0 
12 1 12 0 0.48 0 0 
13 1 13 0 0.52 0 0 
14 1 14 0 0.56 0 0 
15 1 15 0 0.6 0 0 
16 1 16 0 0.64 0 0 
17 1 17 0 0.68 0 0 
18 1 18 0 0.72 0 0 
19 1 19 0 0.76 0 0 
20 1 20 0 0.8 0 0 
21 1 21 0 0.84 0 0 
22 1 22 0 0.88 0 0 
23 1 23 0 0.92 0 0 
24 1 24 0 0.96 0 0 
25 1 25 0 1 0 0 
26 1 26 0.04 0 0 0 
27 1 27 0.039995 0.0399948 0 0.0878991 
28 1 28 0.0399937 0.0799935 0 0.260982 
29 1 29 0.0399941 0.119993 0 0.400314 
30 1 30 0.0399958 0.159995 0 0.443003 
31 1 31 0.0399966 0.199996 0 0.437097 
32 1 32 0.0399977 0.239998 0 0.43388 
33 1 33 0.0399971 0.279997 0 0.499421 
34 1 34 0.0399943 0.319996 0 0.576257 
35 1 35 0.0399923 0.359995 0 0.621496 
36 1 36 0.0399879 0.399996 0 0.571927 
37 1 37 0.0399856 0.439997 0 0.480104 
38 1 38 0.0399813 0.48 0 0.325759 
39 1 39 0.0399809 0.520004 0 0.239369 
40 1 40 0.0399766 0.560008 0 0.2104 
41 1 41 0.0399755 0.600012 0 0.155735 
42 1 42 0.0399727 0.640017 0 0.236113 
43 1 43 0.0399707 0.680022 0 0.276054 
44 1 44 0.0399678 0.720028 0 0.191542 
45 1 45 0.0399681 0.760032 0 0.217835 
46 1 46 0.0399615 0.800041 0 -0.0105406 
47 1 47 0.0399647 0.840045 0 -0.130445 
48 1 48 0.039956 0.880057 0 -0.117238 
49 1 49 0.03995 0.920065 0 -0.20515 
50 1 50 0.039938 0.960081 0 -0.259658 
51 1 51 0.0398706 1.00014 0 -0.404747 
52 1 52 0.08 0 0 0 
53 1 53 0.079993 0.039995 0 0.272372 
54 1 54 0.0799897 0.0799926 0 0.580481 
55 1 55 0.0799894 0.119992 0 0.734199 
56 1 56 0.0799903 0.159993 0 0.767944 
57 1 57 0.0799913 0.199993 0 0.716777 
58 1 58 0.0799931 0.239995 0 0.679574 
59 1 59 0.079992 0.279994 0 0.780536 
60 1 60 0.0799886 0.319993 0 0.913322 
61 1 61 0.0799828 0.359993 0 1.03794 
62 1 62 0.0799748 0.399995 0 1.01368 
63 1 63 0.0799677 0.439999 0 0.899837 
64 1 64 0.0799604 0.480005 0 0.658438 
65 1 65 0.0799556 0.520013 0 0.46115 
66 1 66 0.0799507 0.560021 0 0.386755 
67 1 67 0.0799457 0.600031 0 0.334872 
68 1 68 0.0799423 0.640041 0 0.448732 
69 1 69 0.0799344 0.680052 0 0.483847 
70 1 70 0.0799318 0.720061 0 0.347003 
71 1 71 0.0799269 0.760073 0 0.285207 
72 1 72 0.0799201 0.800084 0 -0.0852675 
73 1 73 0.0799165 0.840099 0 -0.319375 
74 1 74 0.0799041 0.880114 0 -0.436521 
75 1 75 0.0798935 0.920134 0 -0.617839 
76 1 76 0.0798528 0.960171 0 -0.569814 
77 1 77 0.0797979 1.0002 0 -0.616984 
78 1 78 0.12 0 0 0 
79 1 79 0.119992 0.0399969 0 0.438649 
80 1 80 0.119988 0.0799959 0 0.776659 
81 1 81 0.119985 0.119994 0 0.917817 
82 1 82 0.119985 0.159993 0 0.945182 
83 1 83 0.119985 0.199992 0 0.843349 
84 1 84 0.119986 0.239992 0 0.786464 
85 1 85 0.119986 0.279991 0 0.867012 
86 1 86 0.119979 0.319992 0 1.02053 
87 1 87 0.119971 0.359993 0 1.247 
88 1 88 0.119957 0.399998 0 1.29681 
89 1 89 0.119948 0.440004 0 1.17929 
90 1 90 0.119936 0.480014 0 0.887515 
91 1 91 0.119929 0.520026 0 0.602306 
92 1 92 0.119919 0.560039 0 0.466246 
93 1 93 0.119911 0.600052 0 0.452554 
94 1 94 0.119903 0.640068 0 0.562223 
95 1 95 0.119897 0.680082 0 0.5369 
96 1 96 0.11989 0.720099 0 0.333452 
97 1 97 0.119883 0.760114 0 0.129421 
98 1 98 0.119872 0.800132 0 -0.302055 
99 1 99 0.119866 0.84015 0 -0.530896 
100 1 100 0.119848 0.880174 0 -0.74991 
101 1 101 0.119825 0.9202 0 -0.981731 
102 1 102 0.119785 0.960227 0 -0.8958 
103 1 103 0.119734 1.00026 0 -0.928003 
104 1 104 0.16 0 0 0 
105 1 105 0.159993 0.0400001 0 0.594331 
106 1 106 0.159987 0.0799981 0 0.953607 
107 1 107 0.159982 0.119996 0 1.06427 
108 1 108 0.159979 0.159994 0 1.01224 
109 1 109 0.159978 0.199993 0 0.788043 
110 1 110 0.159978 0.239992 0 0.651131 
111 1 111 0.159975 0.279993 0 0.711588 
112 1 112 0.159966 0.319995 0 0.945771 
113 1 113 0.159954 0.359999 0 1.27801 
114 1 114 0.159938 0.400007 0 1.39571 
115 1 115 0.159923 0.440017 0 1.28358 
116 1 116 0.159908 0.480028 0 0.954375 
117 1 117 0.159895 0.520043 0 0.633928 
118 1 118 0.159883 0.560058 0 0.427537 
119 1 119 0.159873 0.600075 0 0.404086 
120 1 120 0.159862 0.640092 0 0.484154 
121 1 121 0.159849 0.680111 0 0.456663 
122 1 122 0.159838 0.720129 0 0.243504 
123 1 123 0.159829 0.760152 0 -0.0812063 
124 1 124 0.159816 0.800174 0 -0.518653 
125 1 125 0.159804 0.8402 0 -0.789307 
126 1 126 0.159783 0.880227 0 -1.0922 
127 1 127 0.159762 0.920256 0 -1.28101 
128 1 128 0.159722 0.960286 0 -1.26977 
129 1 129 0.159674 1.00031 0 -1.41336 
130 1 130 0.2 0 0 0 
131 1 131 0.199995 0.0400018 0 0.619013 
132 1 132 0.199987 0.0800003 0 0.972742 
133 1 133 0.199979 0.119997 0 1.05782 
134 1 134 0.199974 0.159995 0 0.922049 
135 1 135 0.199969 0.199994 0 0.613811 
136 1 136 0.199966 0.239994 0 0.45314 
137 1 137 0.19996 0.279997 0 0.543672 
138 1 138 0.199949 0.320003 0 0.848116 
139 1 139 0.199933 0.36001 0 1.23742 
140 1 140 0.199915 0.40002 0 1.4016 
141 1 141 0.199895 0.440032 0 1.32648 
142 1 142 0.199877 0.480047 0 0.982256 
143 1 143 0.199862 0.520061 0 0.651091 
144 1 144 0.199845 0.560079 0 0.416242 
145 1 145 0.19983 0.600097 0 0.385562 
146 1 146 0.199814 0.640116 0 0.384509 
147 1 147 0.199802 0.680138 0 0.291399 
148 1 148 0.199786 0.720162 0 0.0386605 
149 1 149 0.199772 0.760187 0 -0.381992 
150 1 150 0.199756 0.800215 0 -0.758779 
151 1 151 0.199741 0.840244 0 -1.08176 
152 1 152 0.19972 0.880275 0 -1.45756 
153 1 153 0.199697 0.920307 0 -1.59907 
154 1 154 0.19966 0.960336 0 -1.68247 
155 1 155 0.199622 1.00036 0 -1.90851 
156 1 156 0.24 0 0 0 
157 1 157 0.239996 0.0400027 0 0.497439 
158 1 158 0.239988 0.0800017 0 0.840546 
159 1 159 0.239976 0.119999 0 0.959929 
160 1 160 0.239966 0.159998 0 0.809748 
161 1 161 0.239958 0.199997 0 0.530077 
162 1 162 0.23995 0.24 0 0.395382 
163 1 163 0.239941 0.280005 0 0.439137 
164 1 164 0.239928 0.320014 0 0.724667 
165 1 165 0.23991 0.360025 0 1.14419 
166 1 166 0.239888 0.400038 0 1.37677 
167 1 167 0.239866 0.440051 0 1.3756 
168 1 168 0.239844 0.480067 0 1.08192 
169 1 169 0.239823 0.520083 0 0.785416 
170 1 170 0.239802 0.5601 0 0.494311 
171 1 171 0.239786 0.60012 0 0.395523 
172 1 172 0.239764 0.64014 0 0.28346 
173 1 173 0.239745 0.680164 0 0.0862491 
174 1 174 0.239724 0.72019 0 -0.213531 
175 1 175 0.239707 0.760218 0 -0.673843 
176 1 176 0.239689 0.800249 0 -1.01318 
177 1 177 0.23967 0.840284 0 -1.36749 
178 1 178 0.239651 0.880316 0 -1.7208 
179 1 179 0.239631 0.920349 0 -1.87124 
180 1 180 0.239603 0.960379 0 -2.09494 
181 1 181 0.239571 1.0004 0 -2.36635 
182 1 182 0.28 0 0 0 
183 1 183 0.279996 0.0400011 0 0.348292 
184 1 184 0.279985 0.0800015 0 0.671796 
185 1 185 0.279971 0.120001 0 0.80737 
186 1 186 0.279956 0.160001 0 0.690699 
187 1 187 0.279944 0.200002 0 0.47335 
188 1 188 0.279932 0.240006 0 0.354924 
189 1 189 0.27992 0.280015 0 0.416408 
190 1 190 0.279903 0.320026 0 0.762282 
191 1 191 0.279883 0.360041 0 1.19918 
192 1 192 0.279861 0.400055 0 1.46665 
193 1 193 0.279834 0.440071 0 1.52444 
194 1 194 0.279809 0.480087 0 1.26553 
195 1 195 0.279785 0.520104 0 1.03599 
196 1 196 0.279758 0.560123 0 0.701952 
197 1 197 0.279734 0.600144 0 0.4716 
198 1 198 0.279709 0.640167 0 0.234517 
199 1 199 0.27969 0.680193 0 -0.0826462 
200 1 200 0.279666 0.720221 0 -0.470211 
201 1 201 0.279644 0.760252 0 -0.95056 
202 1 202 0.279623 0.800284 0 -1.28906 
203 1 203 0.279605 0.840318 0 -1.67283 
204 1 204 0.279587 0.880351 0 -1.9436 
205 1 205 0.279567 0.920384 0 -2.12558 
206 1 206 0.279543 0.960415 0 -2.45438 
207 1 207 0.27952 1.00044 0 -2.70954 
208 1 208 0.32 0 0 0 
209 1 209 0.319992 0.0399994 0 0.146975 
210 1 210 0.319979 0.080001 0 0.420193 
211 1 211 0.319963 0.120002 0 0.616442 
212 1 212 0.319945 0.160003 0 0.648507 
213 1 213 0.319928 0.200006 0 0.55189 
214 1 214 0.319911 0.240013 0 0.472104 
215 1 215 0.319894 0.280025 0 0.573567 
216 1 216 0.319876 0.32004 0 0.913697 
217 1 217 0.319854 0.360057 0 1.29935 
218 1 218 0.31983 0.400074 0 1.58854 
219 1 219 0.319801 0.440091 0 1.75968 
220 1 220 0.319771 0.480109 0 1.58213 
221 1 221 0.31974 0.520126 0 1.3967 
222 1 222 0.319709 0.560147 0 1.04648 
223 1 223 0.319684 0.600168 0 0.674869 
224 1 224 0.319653 0.640192 0 0.238066 
225 1 225 0.319625 0.680219 0 -0.266381 
226 1 226 0.319597 0.720248 0 -0.78312 
227 1 227 0.319576 0.76028 0 -1.26334 
228 1 228 0.319553 0.800313 0 -1.60139 
229 1 229 0.319534 0.840347 0 -2.00015 
230 1 230 0.319518 0.88038 0 -2.18508 
231 1 231 0.319502 0.920412 0 -2.39131 
232 1 232 0.319486 0.960441 0 -2.72539 
233 1 233 0.319466 1.00047 0 -2.9046 
234 1 234 0.36 0 0 0 
235 1 235 0.359986 0.0399972 0 0.0322939 
236 1 236 0.359969 0.0799986 0 0.286881 
237 1 237 0.359951 0.120001 0 0.523634 
238 1 238 0.35993 0.160004 0 0.660657 
239 1 239 0.359909 0.20001 0 0.720356 
240 1 240 0.359887 0.240019 0 0.735128 
241 1 241 0.359867 0.280034 0 0.841232 
242 1 242 0.359846 0.320051 0 1.09717 
243 1 243 0.359822 0.36007 0 1.41913 
244 1 244 0.359796 0.400089 0 1.70975 
245 1 245 0.359764 0.440108 0 1.93424 
246 1 246 0.359731 0.480127 0 1.84621 
247 1 247 0.359696 0.520147 0 1.65629 
248 1 248 0.359659 0.560168 0 1.22225 
249 1 249 0.359625 0.600192 0 0.712375 
250 1 250 0.359592 0.640218 0 0.0845149 
251 1 251 0.359568 0.680247 0 -0.545663 
252 1 252 0.359539 0.720277 0 -1.1192 
253 1 253 0.359514 0.760309 0 -1.57409 
254 1 254 0.359489 0.800341 0 -1.85065 
255 1 255 0.359473 0.840373 0 -2.18649 
256 1 256 0.359456 0.880405 0 -2.33716 
257 1 257 0.359439 0.920434 0 -2.62182 
258 1 258 0.359423 0.960465 0 -2.96389 
259 1 259 0.359406 1.00049 0 -3.08923 
260 1 260 0.4 0 0 0 
261 1 261 0.399976 0.0399949 0 -0.00076701 
262 1 262 0.399957 0.0799956 0 0.221385 
263 1 263 0.399937 0.12 0 0.484792 
264 1 264 0.399913 0.160004 0 0.732509 
265 1 265 0.399888 0.200013 0 0.958076 
266 1 266 0.399862 0.240025 0 1.02041 
267 1 267 0.399837 0.280041 0 1.07843 
268 1 268 0.399813 0.320061 0 1.24418 
269 1 269 0.399787 0.360083 0 1.49236 
270 1 270 0.399758 0.400104 0 1.75453 
271 1 271 0.399723 0.440126 0 1.94956 
272 1 272 0.399685 0.480146 0 1.89466 
273 1 273 0.399644 0.520168 0 1.72593 
274 1 274 0.399604 0.56019 0 1.26075 
275 1 275 0.39957 0.600213 0 0.657509 
276 1 276 0.399533 0.64024 0 -0.121119 
277 1 277 0.399499 0.680268 0 -0.829208 
278 1 278 0.399466 0.720299 0 -1.42817 
279 1 279 0.399444 0.76033 0 -1.88407 
280 1 280 0.399421 0.800362 0 -2.10853 
281 1 281 0.399402 0.840393 0 -2.36616 
282 1 282 0.399386 0.880424 0 -2.53025 
283 1 283 0.399374 0.920453 0 -2.84148 
284 1 284 0.39936 0.960483 0 -3.12845 
285 1 285 0.39934 1.00051 0 -3.22755 
286 1 286 0.44 0 0 0 
287 1 287 0.439969 0.039993 0 0.0545849 
288 1 288 0.439943 0.079993 0 0.238703 
289 1 289 0.43992 0.119997 0 0.522596 
290 1 290 0.439893 0.160004 0 0.87154 
291 1 291 0.439863 0.200014 0 1.20346 
292 1 292 0.439833 0.240028 0 1.25289 
293 1 293 0.439803 0.280047 0 1.23413 
294 1 294 0.439775 0.320069 0 1.28091 
295 1 295 0.439746 0.360092 0 1.38589 
296 1 296 0.439716 0.400115 0 1.57104 
297 1 297 0.439679 0.440139 0 1.77983 
298 1 298 0.439638 0.480161 0 1.78609 
299 1 299 0.439595 0.520184 0 1.60046 
300 1 300 0.43955 0.560207 0 1.10671 
301 1 301 0.439506 0.600233 0 0.426598 
302 1 302 0.439468 0.64026 0 -0.473374 
303 1 303 0.43944 0.680291 0 -1.17782 
304 1 304 0.439408 0.720321 0 -1.70842 
305 1 305 0.439382 0.760353 0 -2.09166 
306 1 306 0.439357 0.800384 0 -2.22379 
307 1 307 0.43934 0.840414 0 -2.42465 
308 1 308 0.439324 0.880444 0 -2.6693 
309 1 309 0.439308 0.920472 0 -3.02165 
310 1 310 0.439289 0.960504 0 -3.33744 
311 1 311 0.439268 1.00054 0 -3.5105 
312 1 312 0.48 0 0 0 
313 1 313 0.479959 0.0399927 0 0.231632 
314 1 314 0.479929 0.0799915 0 0.39716 
315 1 315 0.479902 0.119995 0 0.610884 
316 1 316 0.47987 0.160004 0 0.936139 
317 1 317 0.479836 0.200016 0 1.29409 
318 1 318 0.479801 0.240032 0 1.35155 
319 1 319 0.479765 0.280052 0 1.2545 
320 1 320 0.479733 0.320074 0 1.15346 
321 1 321 0.4797 0.3601 0 1.15936 
322 1 322 0.479665 0.400125 0 1.26366 
323 1 323 0.479626 0.440151 0 1.44684 
324 1 324 0.479582 0.480175 0 1.50118 
325 1 325 0.479535 0.5202 0 1.26438 
326 1 326 0.479491 0.560224 0 0.762251 
327 1 327 0.47945 0.600249 0 0.138817 
328 1 328 0.479406 0.640277 0 -0.747153 
329 1 329 0.479368 0.680306 0 -1.41883 
330 1 330 0.479332 0.720338 0 -1.88352 
331 1 331 0.479309 0.760369 0 -2.19334 
332 1 332 0.479285 0.800401 0 -2.25077 
333 1 333 0.479264 0.840432 0 -2.39062 
334 1 334 0.479248 0.880462 0 -2.66125 
335 1 335 0.479238 0.920492 0 -3.00682 
336 1 336 0.479217 0.960524 0 -3.4453 
337 1 337 0.479192 1.00056 0 -3.78964 
338 1 338 0.52 0 0 0 
339 1 339 0.519953 0.0399927 0 0.376916 
340 1 340 0.519915 0.0799906 0 0.510026 
341 1 341 0.519881 0.119995 0 0.65369 
342 1 342 0.519845 0.160004 0 0.939993 
343 1 343 0.519806 0.200018 0 1.24182 
344 1 344 0.519765 0.240034 0 1.23086 
345 1 345 0.519724 0.280055 0 1.06092 
346 1 346 0.519685 0.320078 0 0.853908 
347 1 347 0.519648 0.360103 0 0.818957 
348 1 348 0.51961 0.40013 0 0.893546 
349 1 349 0.51957 0.440158 0 1.03576 
350 1 350 0.519526 0.480185 0 1.14622 
351 1 351 0.519479 0.520211 0 0.981867 
352 1 352 0.519431 0.560237 0 0.553043 
353 1 353 0.519382 0.600265 0 -0.0154852 
354 1 354 0.519339 0.640295 0 -0.842399 
355 1 355 0.519306 0.680326 0 -1.43148 
356 1 356 0.519271 0.720358 0 -1.80155 
357 1 357 0.519241 0.76039 0 -2.03971 
358 1 358 0.519215 0.800422 0 -2.07731 
359 1 359 0.519198 0.840453 0 -2.21073 
360 1 360 0.51918 0.880483 0 -2.56426 
361 1 361 0.519163 0.920515 0 -2.99575 
362 1 362 0.519138 0.96055 0 -3.63238 
363 1 363 0.519114 1.00059 0 -4.16508 
364 1 364 0.56 0 0 0 
365 1 365 0.559948 0.0399933 0 0.518528 
366 1 366 0.559903 0.0799907 0 0.62558 
367 1 367 0.55986 0.119995 0 0.647985 
368 1 368 0.559817 0.160005 0 0.802317 
369 1 369 0.559772 0.20002 0 1.00125 
370 1 370 0.559726 0.240037 0 0.952143 
371 1 371 0.559678 0.280058 0 0.803006 
372 1 372 0.559634 0.320081 0 0.59423 
373 1 373 0.559592 0.360108 0 0.553253 
374 1 374 0.559549 0.400136 0 0.662826 
375 1 375 0.559506 0.440165 0 0.82814 
376 1 376 0.559459 0.480193 0 0.918597 
377 1 377 0.55941 0.520222 0 0.747582 
378 1 378 0.559364 0.560249 0 0.360465 
379 1 379 0.55932 0.600277 0 -0.136304 
380 1 380 0.559273 0.640306 0 -0.814159 
381 1 381 0.559227 0.680337 0 -1.29196 
382 1 382 0.559188 0.720371 0 -1.58553 
383 1 383 0.559161 0.760404 0 -1.75688 
384 1 384 0.559136 0.800438 0 -1.80138 
385 1 385 0.559114 0.840471 0 -1.92216 
386 1 386 0.559096 0.880505 0 -2.30527 
387 1 387 0.559084 0.920539 0 -2.82518 
388 1 388 0.559059 0.960575 0 -3.65688 
389 1 389 0.559034 1.00061 0 -4.34345 
390 1 390 0.6 0 0 0 
391 1 391 0.599944 0.0399931 0 0.553506 
392 1 392 0.599889 0.0799905 0 0.640401 
393 1 393 0.599837 0.119995 0 0.577918 
394 1 394 0.599788 0.160005 0 0.613107 
395 1 395 0.599736 0.20002 0 0.714589 
396 1 396 0.599685 0.240038 0 0.651245 
397 1 397 0.599631 0.280059 0 0.554723 
398 1 398 0.599581 0.320082 0 0.417274 
399 1 399 0.599532 0.360109 0 0.423431 
400 1 400 0.599485 0.400137 0 0.531752 
401 1 401 0.599439 0.440167 0 0.68243 
402 1 402 0.599394 0.480198 0 0.756398 
403 1 403 0.599348 0.520228 0 0.632945 
404 1 404 0.599299 0.560257 0 0.319099 
405 1 405 0.599247 0.600288 0 -0.100284 
406 1 406 0.5992 0.640321 0 -0.601181 
407 1 407 0.599162 0.680354 0 -0.997367 
408 1 408 0.599124 0.720389 0 -1.25795 
409 1 409 0.599088 0.760423 0 -1.38101 
410 1 410 0.599061 0.800459 0 -1.46979 
411 1 411 0.599043 0.840493 0 -1.63001 
412 1 412 0.599021 0.880528 0 -2.09582 
413 1 413 0.599002 0.920564 0 -2.74084 
414 1 414 0.598977 0.960602 0 -3.68867 
415 1 415 0.598956 1.00064 0 -4.4373 
416 1 416 0.64 0 0 0 
417 1 417 0.639938 0.0399931 0 0.503349 
418 1 418 0.639877 0.0799901 0 0.599452 
419 1 419 0.639815 0.119994 0 0.516884 
420 1 420 0.639756 0.160005 0 0.458237 
421 1 421 0.639699 0.20002 0 0.459492 
422 1 422 0.639642 0.240039 0 0.415896 
423 1 423 0.639582 0.28006 0 0.430106 
424 1 424 0.639525 0.320084 0 0.427175 
425 1 425 0.639471 0.360111 0 0.560375 
426 1 426 0.63942 0.400141 0 0.729539 
427 1 427 0.639371 0.440172 0 0.850304 
428 1 428 0.639323 0.480203 0 0.805366 
429 1 429 0.639273 0.520235 0 0.603865 
430 1 430 0.639225 0.560265 0 0.267634 
431 1 431 0.63918 0.600296 0 -0.117896 
432 1 432 0.639129 0.640327 0 -0.485608 
433 1 433 0.639076 0.68036 0 -0.829017 
434 1 434 0.639033 0.720397 0 -1.02587 
435 1 435 0.639002 0.760433 0 -1.09828 
436 1 436 0.638975 0.800471 0 -1.26005 
437 1 437 0.638953 0.840508 0 -1.45762 
438 1 438 0.638932 0.880547 0 -1.96955 
439 1 439 0.638918 0.920586 0 -2.6888 
440 1 440 0.638895 0.960625 0 -3.62882 
441 1 441 0.638875 1.00066 0 -4.3398 
442 1 442 0.68 0 0 0 
443 1 443 0.679934 0.0399923 0 0.433175 
444 1 444 0.679863 0.0799893 0 0.584319 
445 1 445 0.67979 0.119993 0 0.558683 
446 1 446 0.679725 0.160003 0 0.439236 
447 1 447 0.67966 0.200018 0 0.335577 
448 1 448 0.679597 0.240037 0 0.331715 
449 1 449 0.679533 0.280059 0 0.501577 
450 1 450 0.679471 0.320084 0 0.668316 
451 1 451 0.67941 0.360111 0 0.877421 
452 1 452 0.679355 0.400141 0 1.01063 
453 1 453 0.679303 0.440173 0 1.04089 
454 1 454 0.679253 0.480205 0 0.838282 
455 1 455 0.679207 0.520237 0 0.542184 
456 1 456 0.679155 0.56027 0 0.165465 
457 1 457 0.6791 0.600303 0 -0.229553 
458 1 458 0.67905 0.640338 0 -0.503966 
459 1 459 0.679006 0.680373 0 -0.793281 
460 1 460 0.678966 0.72041 0 -0.954386 
461 1 461 0.678926 0.760447 0 -1.02799 
462 1 462 0.678898 0.800486 0 -1.24139 
463 1 463 0.678879 0.840525 0 -1.4606 
464 1 464 0.678855 0.880565 0 -2.0172 
465 1 465 0.678834 0.920606 0 -2.73151 
466 1 466 0.678813 0.960646 0 -3.4736 
467 1 467 0.678798 1.00069 0 -4.01917 
468 1 468 0.72 0 0 0 
469 1 469 0.719926 0.0399921 0 0.328528 
470 1 470 0.719848 0.0799897 0 0.568716 
471 1 471 0.719767 0.119993 0 0.656044 
472 1 472 0.719693 0.160002 0 0.537667 
473 1 473 0.719621 0.200017 0 0.389912 
474 1 474 0.719553 0.240036 0 0.418253 
475 1 475 0.719483 0.280058 0 0.666987 
476 1 476 0.719417 0.320084 0 0.961436 
477 1 477 0.719351 0.360112 0 1.24353 
478 1 478 0.719291 0.400143 0 1.32352 
479 1 479 0.719235 0.440176 0 1.24577 
480 1 480 0.719181 0.480209 0 0.874314 
481 1 481 0.719129 0.520243 0 0.430135 
482 1 482 0.719076 0.560276 0 -0.0443089 
483 1 483 0.719029 0.600309 0 -0.452375 
484 1 484 0.718974 0.640342 0 -0.636754 
485 1 485 0.718915 0.680376 0 -0.866437 
486 1 486 0.718869 0.720413 0 -0.999241 
487 1 487 0.718836 0.760452 0 -1.09325 
488 1 488 0.718809 0.800492 0 -1.35191 
489 1 489 0.718785 0.840533 0 -1.6067 
490 1 490 0.718764 0.880576 0 -2.16933 
491 1 491 0.71875 0.920619 0 -2.81421 
492 1 492 0.71873 0.96066 0 -3.3351 
493 1 493 0.718715 1.0007 0 -3.70154 
494 1 494 0.76 0 0 0 
495 1 495 0.75992 0.039992 0 0.327179 
496 1 496 0.759832 0.0799901 0 0.675789 
497 1 497 0.759744 0.119994 0 0.848752 
498 1 498 0.759662 0.160002 0 0.717276 
499 1 499 0.759582 0.200016 0 0.514103 
500 1 500 0.759507 0.240035 0 0.539583 
501 1 501 0.759434 0.280057 0 0.810625 
502 1 502 0.759363 0.320083 0 1.16157 
503 1 503 0.759292 0.360111 0 1.47357 
504 1 504 0.759229 0.400142 0 1.49599 
505 1 505 0.759168 0.440175 0 1.29095 
506 1 506 0.759111 0.480209 0 0.759594 
507 1 507 0.75906 0.520245 0 0.222762 
508 1 508 0.759002 0.56028 0 -0.281438 
509 1 509 0.758943 0.600316 0 -0.683564 
510 1 510 0.758889 0.640353 0 -0.844967 
511 1 511 0.758843 0.680389 0 -1.02931 
512 1 512 0.758801 0.720425 0 -1.10322 
513 1 513 0.758758 0.760462 0 -1.20206 
514 1 514 0.75873 0.800501 0 -1.47669 
515 1 515 0.75871 0.840542 0 -1.79233 
516 1 516 0.758686 0.880584 0 -2.35804 
517 1 517 0.758664 0.920628 0 -2.86888 
518 1 518 0.758647 0.960671 0 -3.12667 
519 1 519 0.758639 1.00071 0 -3.29641 
520 1 520 0.8 0 0 0 
521 1 521 0.799909 0.0399932 0 0.386012 
522 1 522 0.799816 0.0799922 0 0.78472 
523 1 523 0.79972 0.119996 0 1.01533 
524 1 524 0.799629 0.160004 0 0.885073 
525 1 525 0.799543 0.200017 0 0.592986 
526 1 526 0.799463 0.240036 0 0.574016 
527 1 527 0.799383 0.280059 0 0.840348 
528 1 528 0.799308 0.320085 0 1.18647 
529 1 529 0.799234 0.360114 0 1.45697 
530 1 530 0.799165 0.400145 0 1.39391 
531 1 531 0.7991 0.440178 0 1.09195 
532 1 532 0.799037 0.480213 0 0.496432 
533 1 533 0.798976 0.520249 0 -0.0606687 
534 1 534 0.798919 0.560287 0 -0.543303 
535 1 535 0.798867 0.600322 0 -0.859049 
536 1 536 0.798809 0.640357 0 -0.925428 
537 1 537 0.798749 0.680391 0 -0.999262 
538 1 538 0.798701 0.720426 0 -1.01469 
539 1 539 0.798667 0.760463 0 -1.17034 
540 1 540 0.79864 0.800501 0 -1.48135 
541 1 541 0.798613 0.840542 0 -1.85232 
542 1 542 0.798592 0.880586 0 -2.3981 
543 1 543 0.798576 0.920631 0 -2.81277 
544 1 544 0.798561 0.960674 0 -2.89984 
545 1 545 0.798554 1.00072 0 -2.9114 
546 1 546 0.84 0 0 0 
547 1 547 0.839901 0.0399937 0 0.481416 
548 1 548 0.839798 0.0799946 0 0.887292 
549 1 549 0.839696 0.119999 0 1.09531 
550 1 550 0.839598 0.160007 0 0.963561 
551 1 551 0.839504 0.200021 0 0.641497 
552 1 552 0.839416 0.240039 0 0.531069 
553 1 553 0.839332 0.280062 0 0.654578 
554 1 554 0.839252 0.320088 0 0.901987 
555 1 555 0.839173 0.360115 0 1.12624 
556 1 556 0.839101 0.400145 0 1.03145 
557 1 557 0.839031 0.440177 0 0.70428 
558 1 558 0.838965 0.480212 0 0.154722 
559 1 559 0.838905 0.52025 0 -0.317787 
560 1 560 0.838841 0.560289 0 -0.703547 
561 1 561 0.838778 0.600329 0 -0.899509 
562 1 562 0.838722 0.640369 0 -0.89279 
563 1 563 0.838678 0.680405 0 -0.877513 
564 1 564 0.838634 0.720438 0 -0.832785 
565 1 565 0.838591 0.760472 0 -1.00893 
566 1 566 0.838561 0.800507 0 -1.34939 
567 1 567 0.838537 0.840546 0 -1.82799 
568 1 568 0.838512 0.880586 0 -2.39931 
569 1 569 0.838487 0.92063 0 -2.75421 
570 1 570 0.838475 0.960674 0 -2.71626 
571 1 571 0.838476 1.00072 0 -2.59452 
572 1 572 0.88 0 0 0 
573 1 573 0.879889 0.0399957 0 0.61146 
574 1 574 0.879781 0.0799977 0 1.00048 
575 1 575 0.879673 0.120003 0 1.10732 
576 1 576 0.879565 0.160012 0 0.90857 
577 1 577 0.879463 0.200026 0 0.548894 
578 1 578 0.879368 0.240044 0 0.34872 
579 1 579 0.879279 0.280067 0 0.348921 
580 1 580 0.879195 0.320092 0 0.492324 
581 1 581 0.879114 0.360119 0 0.617472 
582 1 582 0.879036 0.400149 0 0.495046 
583 1 583 0.878961 0.440181 0 0.21286 
584 1 584 0.878889 0.480216 0 -0.207365 
585 1 585 0.878819 0.520255 0 -0.545688 
586 1 586 0.878755 0.560295 0 -0.807281 
587 1 587 0.878701 0.600334 0 -0.860609 
588 1 588 0.878643 0.640371 0 -0.775923 
589 1 589 0.878584 0.680406 0 -0.688892 
590 1 590 0.878536 0.720439 0 -0.593141 
591 1 591 0.878501 0.760471 0 -0.790373 
592 1 592 0.87847 0.800504 0 -1.20131 
593 1 593 0.878438 0.840542 0 -1.77756 
594 1 594 0.878415 0.880581 0 -2.3008 
595 1 595 0.878397 0.920624 0 -2.57625 
596 1 596 0.878387 0.960666 0 -2.52693 
597 1 597 0.878388 1.00071 0 -2.37397 
598 1 598 0.92 0 0 0 
599 1 599 0.919881 0.0399966 0 0.679314 
600 1 600 0.919762 0.0799991 0 0.991281 
601 1 601 0.919647 0.120005 0 1.00567 
602 1 602 0.919535 0.160015 0 0.802119 
603 1 603 0.919424 0.200029 0 0.466879 
604 1 604 0.919321 0.240048 0 0.194628 
605 1 605 0.919225 0.28007 0 0.0468381 
606 1 606 0.919137 0.320095 0 0.0600422 
607 1 607 0.919051 0.360121 0 0.10389 
608 1 608 0.918971 0.400149 0 -0.00906396 
609 1 609 0.918891 0.44018 0 -0.247398 
610 1 610 0.918816 0.480215 0 -0.538105 
611 1 611 0.918746 0.520255 0 -0.707715 
612 1 612 0.918679 0.560297 0 -0.836765 
613 1 613 0.918612 0.60034 0 -0.817644 
614 1 614 0.918557 0.640382 0 -0.706209 
615 1 615 0.918516 0.680418 0 -0.573099 
616 1 616 0.918473 0.72045 0 -0.470386 
617 1 617 0.918427 0.760479 0 -0.68756 
618 1 618 0.918392 0.800509 0 -1.12788 
619 1 619 0.918362 0.840542 0 -1.73791 
620 1 620 0.918333 0.880577 0 -2.20444 
621 1 621 0.918305 0.920618 0 -2.40876 
622 1 622 0.918297 0.960659 0 -2.38484 
623 1 623 0.918303 1.0007 0 -2.25949 
624 1 624 0.96 0 0 0 
625 1 625 0.95987 0.039997 0 0.644345 
626 1 626 0.959746 0.0799992 0 0.88419 
627 1 627 0.959624 0.120006 0 0.857814 
628 1 628 0.959502 0.160016 0 0.722568 
629 1 629 0.959384 0.200031 0 0.497964 
630 1 630 0.959274 0.240049 0 0.198169 
631 1 631 0.959171 0.280071 0 -0.0861053 
632 1 632 0.959078 0.320095 0 -0.238021 
633 1 633 0.95899 0.360122 0 -0.349454 
634 1 634 0.958904 0.400151 0 -0.482116 
635 1 635 0.958821 0.440183 0 -0.624694 
636 1 636 0.958742 0.480218 0 -0.757343 
637 1 637 0.958662 0.520258 0 -0.841225 
638 1 638 0.958593 0.560301 0 -0.942593 
639 1 639 0.958537 0.600341 0 -0.912496 
640 1 640 0.95848 0.640379 0 -0.804852 
641 1 641 0.958422 0.680413 0 -0.679107 
642 1 642 0.958375 0.720445 0 -0.581206 
643 1 643 0.958338 0.760473 0 -0.760213 
644 1 644 0.958301 0.800502 0 -1.2191 
645 1 645 0.958261 0.840535 0 -1.82344 
646 1 646 0.958233 0.88057 0 -2.17242 
647 1 647 0.958213 0.92061 0 -2.24958 
648 1 648 0.958204 0.960651 0 -2.2593 
649 1 649 0.958206 1.00069 0 -2.21805 
650 1 650 1 0 0 0 
651 1 651 0.999863 0.0399955 0 0.510423 
652 1 652 0.999728 0.0799969 0 0.703616 
653 1 653 0.999599 0.120003 0 0.686887 
654 1 654 0.999472 0.160013 0 0.648434 
655 1 655 0.999346 0.200027 0 0.594777 
656 1 656 0.999227 0.240044 0 0.348991 
657 1 657 0.999119 0.280065 0 0.00130215 
658 1 658 0.99902 0.320088 0 -0.267237 
659 1 659 0.998927 0.360115 0 -0.518894 
660 1 660 0.99884 0.400143 0 -0.715083 
661 1 661 0.998751 0.440176 0 -0.875597 
662 1 662 0.998668 0.480212 0 -0.982611 
663 1 663 0.998591 0.520253 0 -1.03158 
664 1 664 0.998519 0.560295 0 -1.10066 
665 1 665 0.998449 0.600339 0 -1.13029 
666 1 666 0.998394 0.640381 0 -1.09447 
667 1 667 0.998356 0.680417 0 -0.995897 
668 1 668 0.998314 0.720448 0 -0.923328 
669 1 669 0.998265 0.760476 0 -1.05046 
670 1 670 0.998223 0.800503 0 -1.46391 
671 1 671 0.998186 0.840533 0 -1.95582 
672 1 672 0.998149 0.880567 0 -2.14086 
673 1 673 0.998119 0.920606 0 -2.06702 
674 1 674 0.99811 0.960648 0 -2.10578 
675 1 675 0.998113 1.00069 0 -2.1826 
676 1 676 1.04 0 0 0 
677 1 677 1.03985 0.0399941 0 0.231562 
678 1 678 1.03971 0.0799927 0 0.40629 
679 1 679 1.03958 0.119997 0 0.552728 
680 1 680 1.03944 0.160006 0 0.715574 
681 1 681 1.03931 0.200017 0 0.856768 
682 1 682 1.03918 0.240033 0 0.68868 
683 1 683 1.03907 0.280053 0 0.280539 
684 1 684 1.03896 0.320076 0 -0.144163 
685 1 685 1.03887 0.360104 0 -0.587737 
686 1 686 1.03877 0.400134 0 -0.898493 
687 1 687 1.03868 0.440169 0 -1.071 
688 1 688 1.03859 0.480206 0 -1.14207 
689 1 689 1.03851 0.520246 0 -1.23241 
690 1 690 1.03843 0.560288 0 -1.36083 
691 1 691 1.03837 0.600328 0 -1.48946 
692 1 692 1.03832 0.640365 0 -1.51632 
693 1 693 1.03826 0.680399 0 -1.42671 
694 1 694 1.03821 0.720431 0 -1.34227 
695 1 695 1.03817 0.760461 0 -1.37846 
696 1 696 1.03813 0.800491 0 -1.72852 
697 1 697 1.03808 0.840526 0 -2.02941 
698 1 698 1.03805 0.880563 0 -2.00499 
699 1 699 1.03803 0.920603 0 -1.82531 
700 1 700 1.03801 0.960647 0 -1.92506 
701 1 701 1.03801 1.00069 0 -2.12725 
702 1 702 1.08 0 0 0 
703 1 703 1.07985 0.0399909 0 -0.0694583 
704 1 704 1.0797 0.0799867 0 0.0783375 
705 1 705 1.07955 0.119989 0 0.368608 
706 1 706 1.07941 0.159995 0 0.710455 
707 1 707 1.07927 0.200004 0 1.05423 
708 1 708 1.07914 0.240018 0 1.04191 
709 1 709 1.07902 0.280035 0 0.64287 
710 1 710 1.07891 0.320057 0 0.0673064 
711 1 711 1.0788 0.360084 0 -0.547938 
712 1 712 1.07871 0.400114 0 -0.960383 
713 1 713 1.07861 0.440148 0 -1.18807 
714 1 714 1.07852 0.480186 0 -1.28348 
715 1 715 1.07843 0.520226 0 -1.42006 
716 1 716 1.07836 0.560267 0 -1.55561 
717 1 717 1.07828 0.600309 0 -1.75756 
718 1 718 1.07823 0.640351 0 -1.85739 
719 1 719 1.07819 0.680389 0 -1.81177 
720 1 720 1.07815 0.720423 0 -1.7754 
721 1 721 1.07809 0.760455 0 -1.73488 
722 1 722 1.07805 0.800488 0 -1.97034 
723 1 723 1.078 0.840523 0 -2.06865 
724 1 724 1.07796 0.880563 0 -1.90662 
725 1 725 1.07793 0.920607 0 -1.6607 
726 1 726 1.07791 0.960652 0 -1.73809 
727 1 727 1.07791 1.0007 0 -1.99249 
728 1 728 1.12 0 0 0 
729 1 729 1.11984 0.0399878 0 -0.332476 
730 1 730 1.11968 0.0799804 0 -0.226158 
731 1 731 1.11953 0.119979 0 0.18405 
732 1 732 1.11938 0.159982 0 0.688405 
733 1 733 1.11924 0.199989 0 1.15866 
734 1 734 1.1191 0.239999 0 1.25772 
735 1 735 1.11897 0.280014 0 0.940981 
736 1 736 1.11885 0.320034 0 0.311092 
737 1 737 1.11874 0.36006 0 -0.434762 
738 1 738 1.11864 0.400092 0 -0.96849 
739 1 739 1.11854 0.440127 0 -1.25374 
740 1 740 1.11844 0.480165 0 -1.30551 
741 1 741 1.11835 0.520204 0 -1.43457 
742 1 742 1.11827 0.560244 0 -1.58247 
743 1 743 1.1182 0.600283 0 -1.84263 
744 1 744 1.11814 0.64032 0 -1.98364 
745 1 745 1.11808 0.680356 0 -1.98286 
746 1 746 1.11804 0.720394 0 -2.03241 
747 1 747 1.118 0.760432 0 -1.9683 
748 1 748 1.11795 0.800472 0 -2.12356 
749 1 749 1.11789 0.840516 0 -2.0306 
750 1 750 1.11785 0.880562 0 -1.70135 
751 1 751 1.11783 0.920609 0 -1.42328 
752 1 752 1.11781 0.960659 0 -1.53112 
753 1 753 1.1178 1.00071 0 -1.828 
754 1 754 1.16 0 0 0 
755 1 755 1.15983 0.0399845 0 -0.513115 
756 1 756 1.15967 0.0799749 0 -0.427678 
757 1 757 1.15951 0.11997 0 0.0542374 
758 1 758 1.15936 0.15997 0 0.598316 
759 1 759 1.15921 0.199973 0 1.10443 
760 1 760 1.15906 0.23998 0 1.32863 
761 1 761 1.15893 0.279991 0 1.10215 
762 1 762 1.1588 0.320009 0 0.421144 
763 1 763 1.15868 0.360032 0 -0.381724 
764 1 764 1.15857 0.400061 0 -0.919842 
765 1 765 1.15847 0.440095 0 -1.18805 
766 1 766 1.15836 0.480132 0 -1.20809 
767 1 767 1.15827 0.52017 0 -1.34458 
768 1 768 1.15819 0.560209 0 -1.45951 
769 1 769 1.1581 0.600251 0 -1.72707 
770 1 770 1.15805 0.640294 0 -1.94498 
771 1 771 1.15801 0.680337 0 -2.05089 
772 1 772 1.15796 0.720378 0 -2.22363 
773 1 773 1.15791 0.760422 0 -2.15005 
774 1 774 1.15786 0.800466 0 -2.21594 
775 1 775 1.15781 0.840513 0 -1.99084 
776 1 776 1.15776 0.880563 0 -1.52395 
777 1 777 1.15773 0.920614 0 -1.23185 
778 1 778 1.1577 0.960666 0 -1.35265 
779 1 779 1.15769 1.00072 0 -1.62899 
780 1 780 1.2 0 0 0 
781 1 781 1.19982 0.0399823 0 -0.505256 
782 1 782 1.19966 0.0799696 0 -0.516238 