ITEM: TIMESTEP
0
ITEM: NUMBER OF ATOMS
7127
ITEM: BOX BOUNDS sm sm sm
0 4
0 2
0 0
ITEM: ATOMS id type tag x y z vx 
0 1 0 0 0 0 0 
1 1 1 0 0.04 0 0 
2 1 2 0 0.08 0 0 
3 1 3 0 0.12 0 0 
4 1 4 0 0.16 0 0 
5 1 5 0 0.2 0 0 
6 1 6 0 0.24 0 0 
7 1 7 0 0.28 0 0 
8 1 8 0 0.32 0 0 
9 1 9 0 0.36 0 0 
10 1 10 0 0.4 0 0 
11 1 11 0 0.44 0 0 
12 1 12 0 0.48 0 0 
13 1 13 0 0.52 0 0 
14 1 14 0 0.56 0 0 
15 1 15 0 0.6 0 0 
16 1 16 0 0.64 0 0 
17 1 17 0 0.68 0 0 
18 1 18 0 0.72 0 0 
19 1 19 0 0.76 0 0 
20 1 20 0 0.8 0 0 
21 1 21 0 0.84 0 0 
22 1 22 0 0.88 0 0 
23 1 23 0 0.92 0 0 
24 1 24 0 0.96 0 0 
25 1 25 0 1 0 0 
26 1 26 0.04 0 0 0 
27 1 27 0.0399925 0.0399904 0 -0.182855 
28 1 28 0.0399885 0.0799845 0 -0.193653 
29 1 29 0.0399849 0.119979 0 0.0363588 
30 1 30 0.0399824 0.159976 0 0.285795 
31 1 31 0.0399794 0.199976 0 0.331049 
32 1 32 0.0399752 0.239977 0 0.288474 
33 1 33 0.039971 0.279978 0 0.166918 
34 1 34 0.0399675 0.31998 0 0.0353232 
35 1 35 0.0399641 0.35998 0 -0.126623 
36 1 36 0.0399622 0.39998 0 -0.226589 
37 1 37 0.0399603 0.439979 0 -0.283805 
38 1 38 0.0399598 0.479979 0 -0.311703 
39 1 39 0.0399585 0.519979 0 -0.321845 
40 1 40 0.0399586 0.55998 0 -0.320801 
41 1 41 0.0399587 0.599982 0 -0.215941 
42 1 42 0.0399586 0.639986 0 -0.17858 
43 1 43 0.0399601 0.679989 0 -0.0927212 
44 1 44 0.0399592 0.719993 0 -0.0183318 
45 1 45 0.0399589 0.759998 0 -0.0140821 
46 1 46 0.0399586 0.800003 0 0.0460536 
47 1 47 0.0399585 0.840008 0 0.104862 
48 1 48 0.0399589 0.880016 0 0.133971 
49 1 49 0.0399577 0.920023 0 0.0664772 
50 1 50 0.0399614 0.960031 0 0.0936493 
51 1 51 0.0399318 1.00007 0 0.202577 
52 1 52 0.08 0 0 0 
53 1 53 0.0799882 0.0399869 0 -0.224858 
54 1 54 0.0799789 0.0799751 0 -0.15979 
55 1 55 0.0799733 0.119967 0 0.107177 
56 1 56 0.0799665 0.159961 0 0.357309 
57 1 57 0.0799582 0.199958 0 0.455532 
58 1 58 0.0799512 0.239957 0 0.449302 
59 1 59 0.0799419 0.279957 0 0.27533 
60 1 60 0.0799365 0.319958 0 0.0892442 
61 1 61 0.0799287 0.359958 0 -0.12386 
62 1 62 0.0799264 0.399959 0 -0.252799 
63 1 63 0.0799208 0.43996 0 -0.370269 
64 1 64 0.0799211 0.479961 0 -0.483769 
65 1 65 0.0799157 0.519964 0 -0.538932 
66 1 66 0.0799166 0.559966 0 -0.606479 
67 1 67 0.0799143 0.599971 0 -0.50978 
68 1 68 0.0799158 0.639976 0 -0.456638 
69 1 69 0.0799143 0.679983 0 -0.312959 
70 1 70 0.0799143 0.719987 0 -0.223575 
71 1 71 0.079913 0.759996 0 -0.213683 
72 1 72 0.0799138 0.800002 0 -0.0572064 
73 1 73 0.0799119 0.840013 0 0.0261921 
74 1 74 0.0799133 0.880022 0 0.15895 
75 1 75 0.0799147 0.920035 0 0.248057 
76 1 76 0.0799053 0.960059 0 0.236671 
77 1 77 0.0798963 1.00007 0 0.275263 
78 1 78 0.12 0 0 0 
79 1 79 0.119984 0.0399828 0 -0.281247 
80 1 80 0.119971 0.0799697 0 -0.176566 
81 1 81 0.119962 0.119958 0 0.125548 
82 1 82 0.119951 0.15995 0 0.460353 
83 1 83 0.11994 0.199943 0 0.661741 
84 1 84 0.119929 0.239938 0 0.667916 
85 1 85 0.119916 0.279936 0 0.441324 
86 1 86 0.119907 0.319936 0 0.19444 
87 1 87 0.119896 0.359935 0 -0.0698004 
88 1 88 0.11989 0.399938 0 -0.257695 
89 1 89 0.119883 0.439939 0 -0.448534 
90 1 90 0.119879 0.479944 0 -0.663027 
91 1 91 0.119875 0.519948 0 -0.778441 
92 1 92 0.119871 0.559956 0 -0.864682 
93 1 93 0.11987 0.599962 0 -0.790822 
94 1 94 0.119869 0.63997 0 -0.719284 
95 1 95 0.119871 0.679976 0 -0.571465 
96 1 96 0.119868 0.719985 0 -0.503877 
97 1 97 0.119868 0.759991 0 -0.476565 
98 1 98 0.119865 0.800001 0 -0.231977 
99 1 99 0.119864 0.840011 0 -0.0927285 
100 1 100 0.119867 0.880025 0 0.137201 
101 1 101 0.119863 0.920042 0 0.383457 
102 1 102 0.11986 0.960059 0 0.321478 
103 1 103 0.119855 1.00008 0 0.257663 
104 1 104 0.16 0 0 0 
105 1 105 0.159978 0.0399799 0 -0.393442 
106 1 106 0.159962 0.079964 0 -0.262758 
107 1 107 0.159951 0.11995 0 0.153157 
108 1 108 0.159937 0.159938 0 0.587179 
109 1 109 0.159924 0.199929 0 0.831987 
110 1 110 0.159909 0.239922 0 0.847679 
111 1 111 0.159892 0.279917 0 0.609691 
112 1 112 0.159878 0.319915 0 0.328538 
113 1 113 0.159864 0.359914 0 0.00615131 
114 1 114 0.159854 0.399916 0 -0.245154 
115 1 115 0.159844 0.43992 0 -0.472971 
116 1 116 0.159837 0.479925 0 -0.732859 
117 1 117 0.159829 0.519932 0 -0.933275 
118 1 118 0.159826 0.559939 0 -1.0437 
119 1 119 0.159822 0.599948 0 -1.01626 
120 1 120 0.159822 0.639956 0 -0.979255 
121 1 121 0.159819 0.679966 0 -0.874109 
122 1 122 0.159818 0.719974 0 -0.850862 
123 1 123 0.159816 0.759985 0 -0.769074 
124 1 124 0.159815 0.799994 0 -0.480082 
125 1 125 0.159813 0.840008 0 -0.263351 
126 1 126 0.159815 0.880023 0 0.0862677 
127 1 127 0.159813 0.92004 0 0.393546 
128 1 128 0.159812 0.960061 0 0.299019 
129 1 129 0.159811 1.00008 0 0.198089 
130 1 130 0.2 0 0 0 
131 1 131 0.199973 0.039977 0 -0.392081 
132 1 132 0.199954 0.0799582 0 -0.259992 
133 1 133 0.19994 0.119942 0 0.131345 
134 1 134 0.199924 0.159927 0 0.532583 
135 1 135 0.199907 0.199915 0 0.78595 
136 1 136 0.199889 0.239906 0 0.838832 
137 1 137 0.199869 0.279899 0 0.666617 
138 1 138 0.199851 0.319894 0 0.452817 
139 1 139 0.199832 0.359893 0 0.171021 
140 1 140 0.199819 0.399893 0 -0.072501 
141 1 141 0.199804 0.439897 0 -0.341227 
142 1 142 0.199796 0.479902 0 -0.649206 
143 1 143 0.199785 0.51991 0 -0.918064 
144 1 144 0.19978 0.559919 0 -1.09732 
145 1 145 0.199773 0.599928 0 -1.16309 
146 1 146 0.199772 0.639939 0 -1.19628 
147 1 147 0.19977 0.679949 0 -1.13529 
148 1 148 0.199768 0.719962 0 -1.14699 
149 1 149 0.199766 0.759972 0 -1.03273 
150 1 150 0.199762 0.799987 0 -0.731924 
151 1 151 0.199762 0.84 0 -0.466363 
152 1 152 0.199764 0.880017 0 -0.0526125 
153 1 153 0.199763 0.920037 0 0.288365 
154 1 154 0.199763 0.960056 0 0.274837 
155 1 155 0.199768 1.00008 0 0.226547 
156 1 156 0.24 0 0 0 
157 1 157 0.239968 0.0399758 0 -0.331949 
158 1 158 0.239948 0.0799546 0 -0.258895 
159 1 159 0.23993 0.119935 0 0.045942 
160 1 160 0.239911 0.159918 0 0.397985 
161 1 161 0.239891 0.199903 0 0.634999 
162 1 162 0.239869 0.239891 0 0.717364 
163 1 163 0.239845 0.27988 0 0.643974 
164 1 164 0.239822 0.319874 0 0.512527 
165 1 165 0.2398 0.35987 0 0.297199 
166 1 166 0.239782 0.399869 0 0.105391 
167 1 167 0.239765 0.439872 0 -0.149781 
168 1 168 0.239752 0.479878 0 -0.440358 
169 1 169 0.239739 0.519884 0 -0.723856 
170 1 170 0.239732 0.559893 0 -0.937086 
171 1 171 0.239724 0.599903 0 -1.10651 
172 1 172 0.23972 0.639914 0 -1.25955 
173 1 173 0.239713 0.679926 0 -1.28763 
174 1 174 0.23971 0.719939 0 -1.32093 
175 1 175 0.239708 0.759954 0 -1.1768 
176 1 176 0.239707 0.79997 0 -0.854512 
177 1 177 0.239706 0.839987 0 -0.549468 
178 1 178 0.239709 0.880006 0 -0.203753 
179 1 179 0.239711 0.920027 0 0.113511 
180 1 180 0.239715 0.960048 0 0.258286 
181 1 181 0.23972 1.00007 0 0.310604 
182 1 182 0.28 0 0 0 
183 1 183 0.279967 0.0399752 0 -0.187803 
184 1 184 0.279942 0.0799515 0 -0.173246 
185 1 185 0.27992 0.119929 0 -0.0152981 
186 1 186 0.279899 0.15991 0 0.173933 
187 1 187 0.279874 0.199892 0 0.314999 
188 1 188 0.279848 0.239876 0 0.415153 
189 1 189 0.279822 0.279863 0 0.472547 
190 1 190 0.279794 0.319853 0 0.493643 
191 1 191 0.279768 0.359846 0 0.420637 
192 1 192 0.279746 0.399844 0 0.347071 
193 1 193 0.279725 0.439845 0 0.163865 
194 1 194 0.27971 0.479849 0 -0.0526881 
195 1 195 0.279694 0.519855 0 -0.381356 
196 1 196 0.279685 0.559862 0 -0.683234 
197 1 197 0.279672 0.599873 0 -0.945088 
198 1 198 0.279667 0.639885 0 -1.23765 
199 1 199 0.279662 0.679899 0 -1.36588 
200 1 200 0.279658 0.719914 0 -1.40434 
201 1 201 0.279653 0.759931 0 -1.28029 
202 1 202 0.279652 0.799951 0 -0.951123 
203 1 203 0.279652 0.839969 0 -0.579742 
204 1 204 0.279655 0.879993 0 -0.338309 
205 1 205 0.279658 0.920014 0 -0.0632362 
206 1 206 0.279663 0.960038 0 0.248349 
207 1 207 0.279671 1.00006 0 0.398332 
208 1 208 0.32 0 0 0 
209 1 209 0.319964 0.0399741 0 -0.0397297 
210 1 210 0.319938 0.0799483 0 -0.0547484 
211 1 211 0.319912 0.119924 0 -0.0490363 
212 1 212 0.319887 0.159902 0 -0.0390195 
213 1 213 0.319858 0.199881 0 0.027704 
214 1 214 0.319829 0.239863 0 0.151424 
215 1 215 0.319798 0.279847 0 0.309232 
216 1 216 0.319767 0.319834 0 0.454228 
217 1 217 0.319737 0.359825 0 0.512284 
218 1 218 0.31971 0.39982 0 0.542461 
219 1 219 0.319685 0.439819 0 0.385399 
220 1 220 0.319667 0.479821 0 0.229031 
221 1 221 0.319648 0.519825 0 -0.0612261 
222 1 222 0.319636 0.559831 0 -0.41248 
223 1 223 0.319623 0.599839 0 -0.736153 
224 1 224 0.319613 0.639851 0 -1.09137 
225 1 225 0.319602 0.679865 0 -1.2995 
226 1 226 0.319596 0.719883 0 -1.30298 
227 1 227 0.319592 0.759902 0 -1.18941 
228 1 228 0.319594 0.799925 0 -0.910458 
229 1 229 0.319593 0.839948 0 -0.50017 
230 1 230 0.319596 0.879973 0 -0.350963 
231 1 231 0.319603 0.919999 0 -0.153824 
232 1 232 0.31961 0.960026 0 0.231081 
233 1 233 0.319617 1.00005 0 0.436243 
234 1 234 0.36 0 0 0 
235 1 235 0.359965 0.0399729 0 0.0728792 
236 1 236 0.359934 0.0799457 0 0.0509342 
237 1 237 0.359904 0.119919 0 -0.0291284 
238 1 238 0.359876 0.159895 0 -0.123609 
239 1 239 0.359844 0.199872 0 -0.126651 
240 1 240 0.359811 0.239851 0 -0.0182458 
241 1 241 0.359777 0.279832 0 0.189403 
242 1 242 0.359741 0.319816 0 0.404735 
243 1 243 0.359707 0.359805 0 0.540385 
244 1 244 0.359676 0.399797 0 0.608948 
245 1 245 0.359647 0.439793 0 0.457689 
246 1 246 0.359625 0.479792 0 0.300698 
247 1 247 0.359605 0.519794 0 0.0404789 
248 1 248 0.359589 0.559799 0 -0.27525 
249 1 249 0.359571 0.599807 0 -0.647595 
250 1 250 0.35956 0.639819 0 -1.00854 
251 1 251 0.35955 0.679835 0 -1.24135 
252 1 252 0.359545 0.719854 0 -1.21036 
253 1 253 0.359536 0.759876 0 -1.01429 
254 1 254 0.359535 0.7999 0 -0.738491 
255 1 255 0.359536 0.839926 0 -0.348988 
256 1 256 0.359539 0.879955 0 -0.261033 
257 1 257 0.359545 0.919982 0 -0.158268 
258 1 258 0.359553 0.960012 0 0.175913 
259 1 259 0.359565 1.00004 0 0.387261 
260 1 260 0.4 0 0 0 
261 1 261 0.399964 0.0399712 0 0.189069 
262 1 262 0.399931 0.0799418 0 0.178567 
263 1 263 0.399898 0.119914 0 0.0245349 
264 1 264 0.399865 0.159888 0 -0.153124 
265 1 265 0.399831 0.199862 0 -0.229426 
266 1 266 0.399796 0.239839 0 -0.136234 
267 1 267 0.399758 0.279818 0 0.110091 
268 1 268 0.399719 0.319801 0 0.347065 
269 1 269 0.399681 0.359788 0 0.490364 
270 1 270 0.399644 0.399777 0 0.529808 
271 1 271 0.399612 0.43977 0 0.400622 
272 1 272 0.399585 0.479767 0 0.232058 
273 1 273 0.399559 0.519766 0 -0.103454 
274 1 274 0.399541 0.559768 0 -0.402864 
275 1 275 0.399522 0.599774 0 -0.743407 
276 1 276 0.399506 0.639785 0 -1.03986 
277 1 277 0.399487 0.679801 0 -1.22216 
278 1 278 0.399478 0.719822 0 -1.14456 
279 1 279 0.399472 0.759845 0 -0.865344 
280 1 280 0.399473 0.799873 0 -0.542036 
281 1 281 0.399471 0.839901 0 -0.202221 
282 1 282 0.399475 0.879932 0 -0.170568 
283 1 283 0.399483 0.919962 0 -0.168678 
284 1 284 0.399495 0.959993 0 0.00683742 
285 1 285 0.39951 1.00002 0 0.171901 
286 1 286 0.44 0 0 0 
287 1 287 0.439964 0.039969 0 0.205024 
288 1 288 0.439928 0.079938 0 0.216988 
289 1 289 0.439891 0.119908 0 0.0866251 
290 1 290 0.439857 0.15988 0 -0.0750187 
291 1 291 0.43982 0.199853 0 -0.176614 
292 1 292 0.439782 0.239828 0 -0.108508 
293 1 293 0.439741 0.279806 0 0.101546 
294 1 294 0.439699 0.319787 0 0.27809 
295 1 295 0.439657 0.359771 0 0.380095 
296 1 296 0.439616 0.399758 0 0.334228 
297 1 297 0.439579 0.439749 0 0.119886 
298 1 298 0.439547 0.479743 0 -0.108154 
299 1 299 0.439518 0.51974 0 -0.475862 
300 1 300 0.439494 0.559741 0 -0.757645 
301 1 301 0.439468 0.599747 0 -1.03866 
302 1 302 0.43945 0.639759 0 -1.19671 
303 1 303 0.439435 0.679775 0 -1.25755 
304 1 304 0.439425 0.719796 0 -1.08819 
305 1 305 0.439413 0.759821 0 -0.743805 
306 1 306 0.43941 0.799849 0 -0.383086 
307 1 307 0.439409 0.839879 0 -0.0834026 
308 1 308 0.439414 0.879909 0 -0.0904418 
309 1 309 0.43942 0.919939 0 -0.178652 
310 1 310 0.439435 0.959971 0 -0.155657 
311 1 311 0.439456 0.999997 0 -0.0239064 
312 1 312 0.48 0 0 0 
313 1 313 0.479963 0.0399666 0 0.207728 
314 1 314 0.479925 0.0799339 0 0.243215 
315 1 315 0.479887 0.119903 0 0.128674 
316 1 316 0.479849 0.159872 0 -0.0401201 
317 1 317 0.479811 0.199844 0 -0.153149 
318 1 318 0.479772 0.239818 0 -0.119166 
319 1 319 0.479728 0.279794 0 -0.00176539 
320 1 320 0.479683 0.319775 0 0.108862 
321 1 321 0.479636 0.359758 0 0.201848 
322 1 322 0.47959 0.399744 0 0.108389 
323 1 323 0.479548 0.439733 0 -0.190788 
324 1 324 0.47951 0.479724 0 -0.512083 
325 1 325 0.479475 0.519719 0 -0.899912 
326 1 326 0.479445 0.559719 0 -1.14413 
327 1 327 0.479419 0.599723 0 -1.39628 
328 1 328 0.479394 0.639733 0 -1.45765 
329 1 329 0.479368 0.679748 0 -1.39614 
330 1 330 0.479353 0.719769 0 -1.13172 
331 1 331 0.479344 0.759794 0 -0.731602 
332 1 332 0.479342 0.799822 0 -0.360035 
333 1 333 0.479338 0.839851 0 -0.121413 
334 1 334 0.479345 0.879882 0 -0.123428 
335 1 335 0.479354 0.919912 0 -0.249137 
336 1 336 0.479374 0.959942 0 -0.367192 
337 1 337 0.479397 0.99997 0 -0.273066 
338 1 338 0.52 0 0 0 
339 1 339 0.519961 0.0399641 0 0.156295 
340 1 340 0.519921 0.0799303 0 0.181709 
341 1 341 0.519882 0.119897 0 0.0674128 
342 1 342 0.519844 0.159866 0 -0.0894731 
343 1 343 0.519804 0.199835 0 -0.19803 
344 1 344 0.519762 0.239809 0 -0.211599 
345 1 345 0.519717 0.279784 0 -0.164902 
346 1 346 0.519669 0.319763 0 -0.0864977 
347 1 347 0.519618 0.359745 0 -0.0299595 
348 1 348 0.519568 0.39973 0 -0.162964 
349 1 349 0.51952 0.439717 0 -0.451249 
350 1 350 0.519475 0.479707 0 -0.820483 
351 1 351 0.519436 0.519701 0 -1.29302 
352 1 352 0.519399 0.559701 0 -1.54021 
353 1 353 0.519363 0.599705 0 -1.72052 
354 1 354 0.519337 0.639716 0 -1.67556 
355 1 355 0.519315 0.67973 0 -1.52688 
356 1 356 0.519299 0.71975 0 -1.23828 
357 1 357 0.519282 0.759773 0 -0.870129 
358 1 358 0.519277 0.799799 0 -0.501417 
359 1 359 0.519274 0.839826 0 -0.293479 
360 1 360 0.519282 0.879855 0 -0.291422 
361 1 361 0.519289 0.919882 0 -0.411948 
362 1 362 0.519312 0.959912 0 -0.568864 
363 1 363 0.519339 0.999939 0 -0.466949 
364 1 364 0.56 0 0 0 
365 1 365 0.559958 0.0399625 0 0.0717597 
366 1 366 0.559918 0.0799275 0 0.0605736 
367 1 367 0.559879 0.119893 0 -0.0426709 
368 1 368 0.559838 0.15986 0 -0.140172 
369 1 369 0.559798 0.199829 0 -0.25896 
370 1 370 0.559755 0.239801 0 -0.373483 
371 1 371 0.559706 0.279776 0 -0.423925 
372 1 372 0.559655 0.319755 0 -0.386346 
373 1 373 0.559601 0.359737 0 -0.331765 
374 1 374 0.559546 0.399721 0 -0.422726 
375 1 375 0.559493 0.439707 0 -0.657209 
376 1 376 0.559441 0.479697 0 -1.03649 
377 1 377 0.559393 0.51969 0 -1.53941 
378 1 378 0.559351 0.559688 0 -1.80497 
379 1 379 0.559315 0.599689 0 -1.93741 
380 1 380 0.55928 0.639697 0 -1.83552 
381 1 381 0.559247 0.679708 0 -1.67454 
382 1 382 0.559225 0.719726 0 -1.38736 
383 1 383 0.559212 0.759747 0 -1.07961 
384 1 384 0.559208 0.799771 0 -0.763074 
385 1 385 0.559202 0.839796 0 -0.601787 
386 1 386 0.559212 0.879824 0 -0.593646 
387 1 387 0.559223 0.91985 0 -0.644238 
388 1 388 0.559247 0.959878 0 -0.733053 
389 1 389 0.559273 0.999907 0 -0.587895 
390 1 390 0.6 0 0 0 
391 1 391 0.599957 0.0399616 0 -0.00290077 
392 1 392 0.599914 0.0799254 0 -0.0796628 
393 1 393 0.599874 0.11989 0 -0.225587 
394 1 394 0.599834 0.159855 0 -0.333679 
395 1 395 0.599791 0.199824 0 -0.479238 
396 1 396 0.599745 0.239795 0 -0.650501 
397 1 397 0.599694 0.27977 0 -0.782285 
398 1 398 0.599641 0.319749 0 -0.780559 
399 1 399 0.599583 0.35973 0 -0.669911 
400 1 400 0.599525 0.399713 0 -0.637191 
401 1 401 0.599466 0.439698 0 -0.806814 
402 1 402 0.599409 0.479687 0 -1.18504 
403 1 403 0.599358 0.519679 0 -1.6479 
404 1 404 0.599308 0.559677 0 -1.92131 
405 1 405 0.599263 0.599678 0 -2.07186 
406 1 406 0.599227 0.639685 0 -1.97425 
407 1 407 0.599199 0.679695 0 -1.817 
408 1 408 0.599176 0.719709 0 -1.56481 
409 1 409 0.599153 0.759726 0 -1.38908 
410 1 410 0.599144 0.799748 0 -1.17723 
411 1 411 0.59914 0.83977 0 -1.04173 
412 1 412 0.599149 0.879794 0 -1.01247 
413 1 413 0.599157 0.919818 0 -0.979812 
414 1 414 0.599181 0.959846 0 -0.917754 
415 1 415 0.599207 0.999876 0 -0.683726 
416 1 416 0.64 0 0 0 
417 1 417 0.639953 0.0399616 0 -0.14516 
418 1 418 0.639912 0.0799248 0 -0.281065 
419 1 419 0.639871 0.119888 0 -0.423989 
420 1 420 0.639828 0.159854 0 -0.537068 
421 1 421 0.639783 0.199821 0 -0.729024 
422 1 422 0.639734 0.239793 0 -0.97441 
423 1 423 0.63968 0.279768 0 -1.1636 
424 1 424 0.639623 0.319746 0 -1.17295 
425 1 425 0.639563 0.359727 0 -1.05752 
426 1 426 0.639501 0.39971 0 -0.939538 
427 1 427 0.639439 0.439695 0 -0.994871 
428 1 428 0.639377 0.479683 0 -1.28681 
429 1 429 0.639318 0.519673 0 -1.69037 
430 1 430 0.639265 0.559668 0 -1.98485 
431 1 431 0.63922 0.599666 0 -2.12874 
432 1 432 0.639176 0.639668 0 -2.03897 
433 1 433 0.639135 0.679674 0 -1.95311 
434 1 434 0.639106 0.719686 0 -1.80165 
435 1 435 0.639086 0.759701 0 -1.74556 
436 1 436 0.639078 0.79972 0 -1.63717 
437 1 437 0.63907 0.83974 0 -1.54544 
438 1 438 0.639078 0.879763 0 -1.49739 
439 1 439 0.63909 0.919787 0 -1.36671 
440 1 440 0.639112 0.959814 0 -1.09718 
441 1 441 0.639133 0.999846 0 -0.745787 
442 1 442 0.68 0 0 0 
443 1 443 0.679954 0.0399615 0 -0.254248 
444 1 444 0.679909 0.0799241 0 -0.44544 
445 1 445 0.679866 0.119887 0 -0.636417 
446 1 446 0.679821 0.159853 0 -0.773156 
447 1 447 0.679773 0.199821 0 -0.988029 
448 1 448 0.67972 0.239792 0 -1.3113 
449 1 449 0.679663 0.279767 0 -1.58645 
450 1 450 0.679602 0.319745 0 -1.64285 
451 1 451 0.67954 0.359724 0 -1.53053 
452 1 452 0.679477 0.399706 0 -1.31073 
453 1 453 0.679411 0.439689 0 -1.23852 
454 1 454 0.679346 0.479676 0 -1.42935 
455 1 455 0.679285 0.519665 0 -1.76293 
456 1 456 0.679226 0.559658 0 -2.06764 
457 1 457 0.679174 0.599655 0 -2.21565 
458 1 458 0.67913 0.639658 0 -2.14348 
459 1 459 0.679095 0.679662 0 -2.10381 
460 1 460 0.679064 0.71967 0 -2.03716 
461 1 461 0.679033 0.759682 0 -2.08315 
462 1 462 0.679017 0.799698 0 -2.0713 
463 1 463 0.679009 0.839715 0 -2.02109 
464 1 464 0.679014 0.879736 0 -1.95399 
465 1 465 0.67902 0.91976 0 -1.742 
466 1 466 0.679039 0.959788 0 -1.27104 
467 1 467 0.679058 0.999821 0 -0.804479 
468 1 468 0.72 0 0 0 
469 1 469 0.71995 0.0399618 0 -0.364804 
470 1 470 0.719906 0.0799236 0 -0.614191 
471 1 471 0.719861 0.119887 0 -0.834673 
472 1 472 0.719813 0.159853 0 -1.02084 
473 1 473 0.719761 0.199821 0 -1.3087 
474 1 474 0.719704 0.239793 0 -1.69069 
475 1 475 0.719643 0.279768 0 -2.00315 
476 1 476 0.71958 0.319745 0 -2.08794 
477 1 477 0.719516 0.359724 0 -2.00712 
478 1 478 0.719449 0.399705 0 -1.76753 
479 1 479 0.719382 0.439687 0 -1.62045 
480 1 480 0.719315 0.479673 0 -1.70136 
481 1 481 0.719247 0.51966 0 -1.91172 
482 1 482 0.719187 0.559651 0 -2.13218 
483 1 483 0.719136 0.599644 0 -2.25952 
484 1 484 0.719085 0.639641 0 -2.25134 
485 1 485 0.719035 0.679642 0 -2.27402 
486 1 486 0.718997 0.719649 0 -2.26882 
487 1 487 0.718969 0.759658 0 -2.35678 
488 1 488 0.718952 0.799673 0 -2.40141 
489 1 489 0.718939 0.839689 0 -2.37214 
490 1 490 0.718941 0.879711 0 -2.26018 
491 1 491 0.718948 0.919735 0 -1.99881 
492 1 492 0.718963 0.959765 0 -1.43263 
493 1 493 0.718975 0.9998 0 -0.919865 
494 1 494 0.76 0 0 0 
495 1 495 0.759951 0.0399605 0 -0.45105 
496 1 496 0.759903 0.0799219 0 -0.762353 
497 1 497 0.759853 0.119886 0 -1.01121 
498 1 498 0.759802 0.159852 0 -1.254 
499 1 499 0.759747 0.199821 0 -1.5927 
500 1 500 0.759686 0.239793 0 -1.99274 
501 1 501 0.759623 0.279767 0 -2.36409 
502 1 502 0.759556 0.319743 0 -2.52541 
503 1 503 0.75949 0.359721 0 -2.4981 
504 1 504 0.759423 0.399701 0 -2.26606 
505 1 505 0.759353 0.439681 0 -2.0657 
506 1 506 0.759283 0.479665 0 -2.04301 
507 1 507 0.759217 0.519651 0 -2.14805 
508 1 508 0.759152 0.559641 0 -2.32126 
509 1 509 0.759092 0.599634 0 -2.46853 
510 1 510 0.759042 0.639632 0 -2.4759 
511 1 511 0.759 0.679632 0 -2.45473 
512 1 512 0.758961 0.719637 0 -2.45592 
513 1 513 0.75892 0.759644 0 -2.53171 
514 1 514 0.758894 0.799656 0 -2.56306 
515 1 515 0.758879 0.839671 0 -2.51408 
516 1 516 0.758875 0.879692 0 -2.35933 
517 1 517 0.758873 0.919716 0 -2.11481 
518 1 518 0.758883 0.959748 0 -1.58186 
519 1 519 0.758893 0.999785 0 -1.09914 
520 1 520 0.8 0 0 0 
521 1 521 0.799948 0.039959 0 -0.477844 
522 1 522 0.799898 0.0799197 0 -0.834294 
523 1 523 0.799846 0.119883 0 -1.15296 
524 1 524 0.799791 0.15985 0 -1.48028 
525 1 525 0.799732 0.19982 0 -1.87016 
526 1 526 0.799669 0.239791 0 -2.28455 
527 1 527 0.799602 0.279765 0 -2.67377 
528 1 528 0.799534 0.319741 0 -2.87703 
529 1 529 0.799466 0.359718 0 -2.9248 
530 1 530 0.799395 0.399697 0 -2.7718 
531 1 531 0.799325 0.439678 0 -2.57506 
532 1 532 0.799252 0.479661 0 -2.46989 
533 1 533 0.79918 0.519645 0 -2.47283 
534 1 534 0.799115 0.559633 0 -2.55362 
535 1 535 0.799057 0.599623 0 -2.68042 
536 1 536 0.799 0.639618 0 -2.72281 
537 1 537 0.798941 0.679616 0 -2.68929 
538 1 538 0.798893 0.71962 0 -2.64827 
539 1 539 0.798858 0.759626 0 -2.58777 
540 1 540 0.798831 0.799638 0 -2.51229 
541 1 541 0.798809 0.839653 0 -2.43377 
542 1 542 0.7988 0.879676 0 -2.25736 
543 1 543 0.798797 0.919702 0 -2.06724 
544 1 544 0.798801 0.959736 0 -1.68514 
545 1 545 0.798803 0.999775 0 -1.31697 
546 1 546 0.84 0 0 0 
547 1 547 0.839947 0.0399564 0 -0.481764 
548 1 548 0.839892 0.0799155 0 -0.861165 
549 1 549 0.839836 0.119879 0 -1.22351 
550 1 550 0.839779 0.159845 0 -1.64005 
551 1 551 0.839718 0.199815 0 -2.10901 
552 1 552 0.839651 0.239786 0 -2.54107 
553 1 553 0.839583 0.27976 0 -2.916 
554 1 554 0.839511 0.319735 0 -3.13752 
555 1 555 0.839441 0.359711 0 -3.26345 
556 1 556 0.83937 0.399689 0 -3.21285 
557 1 557 0.839298 0.439669 0 -3.03082 
558 1 558 0.839223 0.479651 0 -2.86187 
559 1 559 0.839152 0.519635 0 -2.81932 
560 1 560 0.839082 0.559624 0 -2.85029 
561 1 561 0.839014 0.599616 0 -2.96553 
562 1 562 0.838957 0.639613 0 -3.0253 
563 1 563 0.838908 0.679612 0 -2.92527 
564 1 564 0.83886 0.719615 0 -2.77892 
565 1 565 0.838811 0.759621 0 -2.55797 
566 1 566 0.838774 0.799632 0 -2.33754 
567 1 567 0.83875 0.839645 0 -2.19398 
568 1 568 0.838733 0.879667 0 -2.00878 
569 1 569 0.838718 0.919694 0 -1.89979 
570 1 570 0.838715 0.959731 0 -1.75643 
571 1 571 0.838714 0.999771 0 -1.57319 
572 1 572 0.88 0 0 0 
573 1 573 0.879942 0.039954 0 -0.436381 
574 1 574 0.879885 0.0799114 0 -0.88647 
575 1 575 0.879827 0.119874 0 -1.35452 
576 1 576 0.879766 0.159839 0 -1.86423 
577 1 577 0.879703 0.199808 0 -2.35397 
578 1 578 0.879634 0.239779 0 -2.73271 
579 1 579 0.879563 0.279752 0 -3.07494 
580 1 580 0.879491 0.319727 0 -3.3201 
581 1 581 0.879419 0.359703 0 -3.47775 
582 1 582 0.879343 0.399682 0 -3.49933 
583 1 583 0.879269 0.439663 0 -3.37015 
584 1 584 0.879192 0.479646 0 -3.1554 
585 1 585 0.879115 0.519631 0 -3.05465 
586 1 586 0.879045 0.559619 0 -3.06076 
587 1 587 0.878979 0.599609 0 -3.19716 
588 1 588 0.878913 0.639604 0 -3.29421 
589 1 589 0.878845 0.679602 0 -3.14389 
590 1 590 0.87879 0.719606 0 -2.8743 
591 1 591 0.878748 0.759612 0 -2.51155 
592 1 592 0.878711 0.799624 0 -2.17443 
593 1 593 0.878678 0.839639 0 -1.96566 
594 1 594 0.878656 0.879663 0 -1.79542 
595 1 595 0.87864 0.919691 0 -1.77669 
596 1 596 0.878628 0.959729 0 -1.89034 
597 1 597 0.87862 0.99977 0 -1.91642 
598 1 598 0.92 0 0 0 
599 1 599 0.91994 0.0399513 0 -0.417427 
600 1 600 0.919878 0.0799072 0 -0.898728 
601 1 601 0.919816 0.119867 0 -1.42378 
602 1 602 0.919753 0.159832 0 -2.03692 
603 1 603 0.919687 0.199799 0 -2.61111 
604 1 604 0.919616 0.23977 0 -2.97258 
605 1 605 0.919545 0.279742 0 -3.21962 
606 1 606 0.919469 0.319717 0 -3.42584 
607 1 607 0.919394 0.359693 0 -3.59821 
608 1 608 0.919318 0.399672 0 -3.66322 
609 1 609 0.919242 0.439653 0 -3.58524 
610 1 610 0.919162 0.479638 0 -3.36622 
611 1 611 0.919086 0.519624 0 -3.21818 
612 1 612 0.91901 0.559614 0 -3.17878 
613 1 613 0.918932 0.599608 0 -3.2931 
614 1 614 0.918867 0.639607 0 -3.40545 
615 1 615 0.918811 0.679607 0 -3.24982 
616 1 616 0.918755 0.719611 0 -2.88554 
617 1 617 0.918699 0.759616 0 -2.41442 
618 1 618 0.918654 0.799628 0 -1.99349 
619 1 619 0.918619 0.839642 0 -1.74211 
620 1 620 0.918588 0.879666 0 -1.64556 
621 1 621 0.918559 0.919695 0 -1.68888 
622 1 622 0.91854 0.959733 0 -1.91509 
623 1 623 0.91853 0.999775 0 -2.0665 
624 1 624 0.96 0 0 0 
625 1 625 0.959934 0.0399503 0 -0.363879 
626 1 626 0.95987 0.0799044 0 -0.923083 
627 1 627 0.959805 0.119863 0 -1.56745 
628 1 628 0.959738 0.159826 0 -2.2663 
629 1 629 0.959671 0.199793 0 -2.86245 
630 1 630 0.959598 0.239763 0 -3.19428 
631 1 631 0.959524 0.279735 0 -3.36641 
632 1 632 0.959447 0.31971 0 -3.52981 
633 1 633 0.959369 0.359686 0 -3.6789 
634 1 634 0.959288 0.399667 0 -3.73955 
635 1 635 0.95921 0.43965 0 -3.66482 
636 1 636 0.959129 0.479635 0 -3.38185 
637 1 637 0.959046 0.519623 0 -3.14429 
638 1 638 0.958968 0.559615 0 -3.07486 
639 1 639 0.958894 0.599607 0 -3.15702 
640 1 640 0.958819 0.639604 0 -3.25597 
641 1 641 0.958743 0.679603 0 -3.16489 
642 1 642 0.958681 0.719608 0 -2.79312 
643 1 643 0.958633 0.759615 0 -2.28909 
644 1 644 0.958589 0.799627 0 -1.89359 
645 1 645 0.958544 0.839644 0 -1.6859 
646 1 646 0.958507 0.87967 0 -1.70378 
647 1 647 0.958477 0.919701 0 -1.81858 
648 1 648 0.95845 0.95974 0 -2.11855 
649 1 649 0.958433 0.999782 0 -2.3585 
650 1 650 1 0 0 0 
651 1 651 0.999932 0.0399491 0 -0.373838 
652 1 652 0.999861 0.0799028 0 -1.003 
653 1 653 0.999793 0.119861 0 -1.71304 
654 1 654 0.999724 0.159823 0 -2.46045 
655 1 655 0.999653 0.199789 0 -3.07369 
656 1 656 0.999578 0.239759 0 -3.38811 
657 1 657 0.999502 0.279731 0 -3.48593 
658 1 658 0.999422 0.319705 0 -3.57723 
659 1 659 0.999342 0.359681 0 -3.66195 
660 1 660 0.99926 0.399661 0 -3.6965 
661 1 661 0.999179 0.439644 0 -3.63258 
662 1 662 0.999095 0.479631 0 -3.31709 
663 1 663 0.999013 0.51962 0 -3.00333 
664 1 664 0.998929 0.559612 0 -2.89742 
665 1 665 0.998843 0.599609 0 -2.94175 
666 1 666 0.998769 0.63961 0 -2.99198 
667 1 667 0.998707 0.679612 0 -2.92401 
668 1 668 0.998646 0.719617 0 -2.58695 
669 1 669 0.998581 0.759624 0 -2.18531 
670 1 670 0.998528 0.799638 0 -1.91958 
671 1 671 0.998481 0.839655 0 -1.74564 
672 1 672 0.998435 0.879681 0 -1.80499 
673 1 673 0.998394 0.919713 0 -1.91652 
674 1 674 0.998363 0.959752 0 -2.16681 
675 1 675 0.998345 0.999793 0 -2.40695 
676 1 676 1.04 0 0 0 
677 1 677 1.03993 0.0399495 0 -0.362107 
678 1 678 1.03985 0.0799031 0 -0.966938 
679 1 679 1.03978 0.11986 0 -1.70065 
680 1 680 1.03971 0.159823 0 -2.52216 
681 1 681 1.03963 0.19979 0 -3.16143 
682 1 682 1.03956 0.23976 0 -3.49185 
683 1 683 1.03948 0.279732 0 -3.57804 
684 1 684 1.0394 0.319707 0 -3.6262 
685 1 685 1.03931 0.359684 0 -3.64558 
686 1 686 1.03923 0.399664 0 -3.62998 
687 1 687 1.03914 0.439646 0 -3.54953 
688 1 688 1.03906 0.479633 0 -3.21628 
689 1 689 1.03897 0.519622 0 -2.82595 
690 1 690 1.03889 0.559615 0 -2.60886 
691 1 691 1.03881 0.599609 0 -2.53806 
692 1 692 1.03872 0.639608 0 -2.55655 
693 1 693 1.03864 0.679609 0 -2.59096 
694 1 694 1.03857 0.719617 0 -2.33321 
695 1 695 1.03851 0.759626 0 -2.04446 
696 1 696 1.03846 0.799641 0 -1.96444 
697 1 697 1.0384 0.839662 0 -1.91103 
698 1 698 1.03835 0.879691 0 -2.06103 
699 1 699 1.03831 0.919725 0 -2.21602 
700 1 700 1.03827 0.959764 0 -2.39699 
701 1 701 1.03825 0.999806 0 -2.5845 
702 1 702 1.08 0 0 0 
703 1 703 1.07992 0.0399491 0 -0.27963 
704 1 704 1.07984 0.0799031 0 -0.855433 
705 1 705 1.07977 0.119861 0 -1.61675 
706 1 706 1.07969 0.159825 0 -2.46073 
707 1 707 1.07961 0.199791 0 -3.09658 
708 1 708 1.07953 0.239763 0 -3.45583 
709 1 709 1.07945 0.279735 0 -3.53297 
710 1 710 1.07937 0.31971 0 -3.563 
711 1 711 1.07929 0.359686 0 -3.57422 
712 1 712 1.0792 0.399665 0 -3.51774 
713 1 713 1.07911 0.439646 0 -3.37654 
714 1 714 1.07902 0.479631 0 -3.01578 
715 1 715 1.07894 0.51962 0 -2.60803 
716 1 716 1.07885 0.559613 0 -2.38086 
717 1 717 1.07875 0.599612 0 -2.26408 
718 1 718 1.07867 0.639615 0 -2.21527 
719 1 719 1.0786 0.679619 0 -2.28481 
720 1 720 1.07853 0.719628 0 -2.13536 
721 1 721 1.07846 0.759639 0 -1.99295 
722 1 722 1.07839 0.799657 0 -2.06275 
723 1 723 1.07833 0.839679 0 -2.07436 
724 1 724 1.07827 0.879707 0 -2.22376 
725 1 725 1.07822 0.919742 0 -2.3354 
726 1 726 1.07818 0.959781 0 -2.34715 
727 1 727 1.07816 0.999823 0 -2.41132 
728 1 728 1.12 0 0 0 
729 1 729 1.11992 0.0399496 0 -0.203419 
730 1 730 1.11984 0.0799034 0 -0.657608 
731 1 731 1.11975 0.119861 0 -1.31442 
732 1 732 1.11967 0.159825 0 -2.11957 
733 1 733 1.11959 0.199793 0 -2.78059 
734 1 734 1.11951 0.239766 0 -3.24472 
735 1 735 1.11943 0.27974 0 -3.41148 
736 1 736 1.11934 0.319716 0 -3.45786 
737 1 737 1.11926 0.359693 0 -3.42826 
738 1 738 1.11917 0.399672 0 -3.34296 
739 1 739 1.11908 0.439652 0 -3.21122 
740 1 740 1.11899 0.479638 0 -2.89943 
741 1 741 1.1189 0.519626 0 -2.51783 
742 1 742 1.1188 0.559619 0 -2.27902 
743 1 743 1.11872 0.599615 0 -2.10674 
744 1 744 1.11862 0.639614 0 -1.97408 
745 1 745 1.11853 0.679618 0 -2.0422 
746 1 746 1.11845 0.71963 0 -1.99978 
747 1 747 1.11838 0.759644 0 -1.9966 
748 1 748 1.11832 0.799665 0 -2.21815 
749 1 749 1.11825 0.839691 0 -2.31791 
750 1 750 1.11818 0.879722 0 -2.42869 
751 1 751 1.11813 0.919758 0 -2.52033 
752 1 752 1.11809 0.959797 0 -2.47348 
753 1 753 1.11806 0.999839 0 -2.46635 
754 1 754 1.16 0 0 0 
755 1 755 1.15991 0.0399491 0 -0.000139914 
756 1 756 1.15983 0.0799029 0 -0.292998 
757 1 757 1.15974 0.119861 0 -0.852368 
758 1 758 1.15966 0.159826 0 -1.64898 
759 1 759 1.15957 0.199794 0 -2.35003 
760 1 760 1.15949 0.239767 0 -2.8967 
761 1 761 1.1594 0.279742 0 -3.16696 
762 1 762 1.15932 0.319718 0 -3.28529 
763 1 763 1.15923 0.359695 0 -3.27668 
764 1 764 1.15914 0.399674 0 -3.17177 
765 1 765 1.15905 0.439655 0 -3.0278 
766 1 766 1.15895 0.479641 0 -2.80373 
767 1 767 1.15886 0.519629 0 -2.49485 
768 1 768 1.15876 0.559623 0 -2.26841 
769 1 769 1.15866 0.599622 0 -2.11848 
770 1 770 1.15857 0.639628 0 -1.97157 
771 1 771 1.15849 0.679635 0 -2.00646 
772 1 772 1.15841 0.719647 0 -2.02273 
773 1 773 1.15833 0.759663 0 -2.05646 
774 1 774 1.15825 0.799685 0 -2.27419 