ITEM: TIMESTEP
0
ITEM: NUMBER OF ATOMS
7127
ITEM: BOX BOUNDS sm sm sm
0 4
0 2
0 0
ITEM: ATOMS id type tag x y z vx 
0 1 0 0 0 0 0 
1 1 1 0 0.04 0 0 
2 1 2 0 0.08 0 0 
3 1 3 0 0.12 0 0 
4 1 4 0 0.16 0 0 
5 1 5 0 0.2 0 0 
6 1 6 0 0.24 0 0 
7 1 7 0 0.28 0 0 
8 1 8 0 0.32 0 0 
9 1 9 0 0.36 0 0 
10 1 10 0 0.4 0 0 
11 1 11 0 0.44 0 0 
12 1 12 0 0.48 0 0 
13 1 13 0 0.52 0 0 
14 1 14 0 0.56 0 0 
15 1 15 0 0.6 0 0 
16 1 16 0 0.64 0 0 
17 1 17 0 0.68 0 0 
18 1 18 0 0.72 0 0 
19 1 19 0 0.76 0 0 
20 1 20 0 0.8 0 0 
21 1 21 0 0.84 0 0 
22 1 22 0 0.88 0 0 
23 1 23 0 0.92 0 0 
24 1 24 0 0.96 0 0 
25 1 25 0 1 0 0 
26 1 26 0.04 0 0 0 
27 1 27 0.040001 0.0399999 0 0.0489058 
28 1 28 0.0400014 0.0799998 0 0.0866145 
29 1 29 0.0400024 0.12 0 0.228443 
30 1 30 0.0400038 0.160003 0 0.214112 
31 1 31 0.0400019 0.200007 0 0.146997 
32 1 32 0.0400001 0.240013 0 0.146853 
33 1 33 0.0399974 0.280019 0 0.182262 
34 1 34 0.0399945 0.320024 0 0.112037 
35 1 35 0.0399921 0.360025 0 0.0517792 
36 1 36 0.0399889 0.400025 0 0.0539339 
37 1 37 0.0399871 0.440022 0 0.0148048 
38 1 38 0.0399844 0.480018 0 0.0156943 
39 1 39 0.0399823 0.520015 0 0.0934478 
40 1 40 0.039978 0.560016 0 0.0943831 
41 1 41 0.0399788 0.600017 0 0.196768 
42 1 42 0.0399748 0.640022 0 0.308708 
43 1 43 0.0399766 0.680024 0 0.371517 
44 1 44 0.0399726 0.720029 0 0.419437 
45 1 45 0.0399729 0.76003 0 0.345329 
46 1 46 0.0399679 0.800033 0 0.314209 
47 1 47 0.0399657 0.840035 0 0.167401 
48 1 48 0.0399625 0.880037 0 0.0775606 
49 1 49 0.0399572 0.920043 0 0.058364 
50 1 50 0.0399546 0.960051 0 0.0217989 
51 1 51 0.0399045 1.0001 0 0.0377362 
52 1 52 0.08 0 0 0 
53 1 53 0.0800014 0.0400021 0 0.184916 
54 1 54 0.080003 0.0800054 0 0.24463 
55 1 55 0.0800039 0.12001 0 0.326062 
56 1 56 0.0800031 0.160015 0 0.32054 
57 1 57 0.0799983 0.200021 0 0.370842 
58 1 58 0.0799954 0.24003 0 0.364495 
59 1 59 0.0799897 0.280037 0 0.321602 
60 1 60 0.0799866 0.320043 0 0.168259 
61 1 61 0.0799822 0.360047 0 0.073297 
62 1 62 0.0799799 0.400047 0 0.0654873 
63 1 63 0.0799752 0.440045 0 0.0745412 
64 1 64 0.0799714 0.480041 0 0.137289 
65 1 65 0.0799636 0.52004 0 0.284552 
66 1 66 0.0799576 0.56004 0 0.309976 
67 1 67 0.0799533 0.600044 0 0.441353 
68 1 68 0.0799493 0.640048 0 0.548737 
69 1 69 0.0799477 0.680054 0 0.609596 
70 1 70 0.0799452 0.720056 0 0.730365 
71 1 71 0.0799393 0.760062 0 0.60188 
72 1 72 0.0799366 0.800063 0 0.537927 
73 1 73 0.0799281 0.840071 0 0.41749 
74 1 74 0.079922 0.880075 0 0.316948 
75 1 75 0.0799131 0.920088 0 0.26242 
76 1 76 0.0798868 0.960115 0 0.0285628 
77 1 77 0.0798564 1.00013 0 -0.126482 
78 1 78 0.12 0 0 0 
79 1 79 0.12 0.0400057 0 0.255306 
80 1 80 0.120003 0.0800138 0 0.303197 
81 1 81 0.120002 0.120021 0 0.39079 
82 1 82 0.119999 0.160029 0 0.502181 
83 1 83 0.119992 0.200037 0 0.665837 
84 1 84 0.119988 0.240046 0 0.595928 
85 1 85 0.11998 0.280053 0 0.461987 
86 1 86 0.119976 0.320061 0 0.23374 
87 1 87 0.119971 0.360065 0 0.0772858 
88 1 88 0.119968 0.400068 0 0.0161139 
89 1 89 0.119964 0.440067 0 0.0964186 
90 1 90 0.119956 0.480067 0 0.235859 
91 1 91 0.119947 0.520066 0 0.438957 
92 1 92 0.119936 0.560068 0 0.553645 
93 1 93 0.119929 0.600072 0 0.732162 
94 1 94 0.119922 0.640078 0 0.850552 
95 1 95 0.119923 0.680082 0 0.8687 
96 1 96 0.119918 0.720088 0 0.940633 
97 1 97 0.119912 0.760092 0 0.794415 
98 1 98 0.119903 0.800098 0 0.705856 
99 1 99 0.119892 0.840104 0 0.587316 
100 1 100 0.11988 0.880116 0 0.46522 
101 1 101 0.119861 0.920134 0 0.375398 
102 1 102 0.119836 0.960151 0 0.0700218 
103 1 103 0.119806 1.00018 0 -0.178096 
104 1 104 0.16 0 0 0 
105 1 105 0.159998 0.0400097 0 0.244369 
106 1 106 0.159999 0.0800187 0 0.356269 
107 1 107 0.159997 0.120028 0 0.496412 
108 1 108 0.159994 0.160039 0 0.645796 
109 1 109 0.159985 0.200049 0 0.812047 
110 1 110 0.159978 0.240059 0 0.727142 
111 1 111 0.159969 0.280069 0 0.614821 
112 1 112 0.159963 0.320077 0 0.353177 
113 1 113 0.159958 0.360083 0 0.149295 
114 1 114 0.159953 0.400087 0 0.0720591 
115 1 115 0.159949 0.44009 0 0.190518 
116 1 116 0.159939 0.480091 0 0.358764 
117 1 117 0.159927 0.520094 0 0.576161 
118 1 118 0.159913 0.560097 0 0.753419 
119 1 119 0.159904 0.600102 0 0.92855 
120 1 120 0.159896 0.640107 0 1.0745 
121 1 121 0.159892 0.680112 0 1.12357 
122 1 122 0.159886 0.720118 0 1.10422 
123 1 123 0.159879 0.760124 0 0.960611 
124 1 124 0.159868 0.80013 0 0.917704 
125 1 125 0.159851 0.84014 0 0.764471 
126 1 126 0.159833 0.880152 0 0.536836 
127 1 127 0.159812 0.920169 0 0.392571 
128 1 128 0.159785 0.96019 0 0.170998 
129 1 129 0.159753 1.00021 0 -0.0292845 
130 1 130 0.2 0 0 0 
131 1 131 0.199997 0.0400105 0 0.204366 
132 1 132 0.199996 0.0800213 0 0.396367 
133 1 133 0.199992 0.120033 0 0.52834 
134 1 134 0.199986 0.160045 0 0.701913 
135 1 135 0.199974 0.200058 0 0.917523 
136 1 136 0.199965 0.240069 0 0.864853 
137 1 137 0.199956 0.280081 0 0.755378 
138 1 138 0.199949 0.320091 0 0.48944 
139 1 139 0.199943 0.360099 0 0.297004 
140 1 140 0.199938 0.400105 0 0.219873 
141 1 141 0.199932 0.44011 0 0.345438 
142 1 142 0.199921 0.480114 0 0.514108 
143 1 143 0.199907 0.520118 0 0.766015 
144 1 144 0.199891 0.560123 0 0.984106 
145 1 145 0.199878 0.600129 0 1.08739 
146 1 146 0.19987 0.640136 0 1.16829 
147 1 147 0.199867 0.680142 0 1.2109 
148 1 148 0.199859 0.72015 0 1.16136 
149 1 149 0.199849 0.760157 0 1.03954 
150 1 150 0.199834 0.800166 0 1.00407 
151 1 151 0.199814 0.840176 0 0.909966 
152 1 152 0.199791 0.880189 0 0.692765 
153 1 153 0.199766 0.920205 0 0.514325 
154 1 154 0.199734 0.960225 0 0.380715 
155 1 155 0.199703 1.00025 0 0.229519 
156 1 156 0.24 0 0 0 
157 1 157 0.239995 0.0400116 0 0.117422 
158 1 158 0.239992 0.0800234 0 0.352376 
159 1 159 0.239985 0.120037 0 0.510007 
160 1 160 0.239976 0.160051 0 0.748537 
161 1 161 0.239963 0.200065 0 0.981105 
162 1 162 0.239953 0.240079 0 0.949913 
163 1 163 0.239941 0.280091 0 0.885069 
164 1 164 0.239933 0.320102 0 0.676724 
165 1 165 0.239927 0.360111 0 0.541397 
166 1 166 0.239919 0.40012 0 0.443327 
167 1 167 0.239913 0.440127 0 0.564212 
168 1 168 0.239899 0.480135 0 0.719009 
169 1 169 0.239883 0.520141 0 0.920725 
170 1 170 0.239866 0.560148 0 1.09308 
171 1 171 0.239852 0.600154 0 1.14015 
172 1 172 0.239841 0.640162 0 1.19024 
173 1 173 0.239832 0.68017 0 1.18812 
174 1 174 0.239823 0.720178 0 1.1265 
175 1 175 0.239813 0.760188 0 1.12325 
176 1 176 0.239795 0.800198 0 1.08484 
177 1 177 0.239775 0.84021 0 0.98858 
178 1 178 0.239747 0.880223 0 0.834782 
179 1 179 0.239719 0.920241 0 0.709308 
180 1 180 0.239684 0.96026 0 0.698213 
181 1 181 0.239648 1.00029 0 0.596444 
182 1 182 0.28 0 0 0 
183 1 183 0.279993 0.0400122 0 0.101624 
184 1 184 0.279987 0.0800254 0 0.354779 
185 1 185 0.279977 0.120041 0 0.545193 
186 1 186 0.279966 0.160056 0 0.794289 
187 1 187 0.27995 0.200072 0 0.931656 
188 1 188 0.279939 0.240087 0 0.916618 
189 1 189 0.279926 0.280099 0 0.966862 
190 1 190 0.279917 0.320111 0 0.846384 
191 1 191 0.279909 0.360121 0 0.831772 
192 1 192 0.2799 0.400131 0 0.799721 
193 1 193 0.27989 0.440141 0 0.913284 
194 1 194 0.279875 0.480151 0 1.05574 
195 1 195 0.279859 0.520161 0 1.19219 
196 1 196 0.27984 0.560169 0 1.2347 
197 1 197 0.279823 0.600178 0 1.16628 
198 1 198 0.279811 0.640187 0 1.12536 
199 1 199 0.279803 0.680198 0 1.08409 
200 1 200 0.279794 0.720208 0 1.04772 
201 1 201 0.279781 0.76022 0 1.14648 
202 1 202 0.27976 0.800232 0 1.19013 
203 1 203 0.279737 0.840244 0 1.19878 
204 1 204 0.279705 0.88026 0 1.11437 
205 1 205 0.279673 0.920278 0 1.0065 
206 1 206 0.279633 0.960299 0 1.07351 
207 1 207 0.279596 1.00032 0 1.00028 
208 1 208 0.32 0 0 0 
209 1 209 0.31999 0.0400122 0 0.136162 
210 1 210 0.319981 0.0800268 0 0.414278 
211 1 211 0.319967 0.120044 0 0.637116 
212 1 212 0.319954 0.160061 0 0.845091 
213 1 213 0.319937 0.200079 0 0.903841 
214 1 214 0.319925 0.240094 0 0.923459 
215 1 215 0.319911 0.280108 0 1.02258 
216 1 216 0.3199 0.32012 0 0.997198 
217 1 217 0.31989 0.360131 0 1.12812 
218 1 218 0.319877 0.400142 0 1.18417 
219 1 219 0.319865 0.440155 0 1.27684 
220 1 220 0.319848 0.480167 0 1.36817 
221 1 221 0.31983 0.520179 0 1.47596 
222 1 222 0.31981 0.560189 0 1.4144 
223 1 223 0.319794 0.600198 0 1.2293 
224 1 224 0.319777 0.640208 0 1.07614 
225 1 225 0.319764 0.680218 0 0.979121 
226 1 226 0.319751 0.720232 0 1.00927 
227 1 227 0.319738 0.760246 0 1.18654 
228 1 228 0.319718 0.800262 0 1.25759 
229 1 229 0.319696 0.840279 0 1.40252 
230 1 230 0.319659 0.880296 0 1.40967 
231 1 231 0.319625 0.920318 0 1.28901 
232 1 232 0.319583 0.960339 0 1.42131 
233 1 233 0.319542 1.00036 0 1.38542 
234 1 234 0.36 0 0 0 
235 1 235 0.359986 0.040012 0 0.177393 
236 1 236 0.359972 0.0800281 0 0.507596 
237 1 237 0.359956 0.120047 0 0.787122 
238 1 238 0.359941 0.160065 0 0.951155 
239 1 239 0.359923 0.200084 0 0.951192 
240 1 240 0.359909 0.2401 0 0.959102 
241 1 241 0.359895 0.280114 0 1.02687 
242 1 242 0.359883 0.320127 0 1.13491 
243 1 243 0.35987 0.36014 0 1.40064 
244 1 244 0.359855 0.400153 0 1.51786 
245 1 245 0.359838 0.440167 0 1.65237 
246 1 246 0.35982 0.480181 0 1.69651 
247 1 247 0.359802 0.520194 0 1.69725 
248 1 248 0.359781 0.560206 0 1.54327 
249 1 249 0.359762 0.600218 0 1.30819 
250 1 250 0.359745 0.64023 0 1.10122 
251 1 251 0.359732 0.680244 0 1.00253 
252 1 252 0.359719 0.720258 0 1.06383 
253 1 253 0.359703 0.760276 0 1.33094 
254 1 254 0.359678 0.800294 0 1.49178 
255 1 255 0.359654 0.840314 0 1.70167 
256 1 256 0.359614 0.880336 0 1.73236 
257 1 257 0.359578 0.920358 0 1.57748 
258 1 258 0.359534 0.960381 0 1.726 
259 1 259 0.359494 1.0004 0 1.71284 
260 1 260 0.4 0 0 0 
261 1 261 0.39998 0.0400126 0 0.255274 
262 1 262 0.399962 0.0800295 0 0.649358 
263 1 263 0.399944 0.120048 0 0.971233 
264 1 264 0.399926 0.160068 0 1.07418 
265 1 265 0.399908 0.200086 0 0.980652 
266 1 266 0.399893 0.240103 0 0.970113 
267 1 267 0.399877 0.280119 0 1.04203 
268 1 268 0.399864 0.320133 0 1.25256 
269 1 269 0.399847 0.360148 0 1.56926 
270 1 270 0.39983 0.400163 0 1.73421 
271 1 271 0.39981 0.44018 0 1.92634 
272 1 272 0.39979 0.480197 0 1.95329 
273 1 273 0.399769 0.520213 0 1.87802 
274 1 274 0.399749 0.560226 0 1.66167 
275 1 275 0.399729 0.600239 0 1.44331 
276 1 276 0.399708 0.640251 0 1.20799 
277 1 277 0.399688 0.680266 0 1.15239 
278 1 278 0.399669 0.720283 0 1.2532 
279 1 279 0.399654 0.760304 0 1.53779 
280 1 280 0.39963 0.800326 0 1.77869 
281 1 281 0.399604 0.84035 0 1.97321 
282 1 282 0.399564 0.880373 0 1.96004 
283 1 283 0.399528 0.920399 0 1.80047 
284 1 284 0.399485 0.960421 0 1.93079 
285 1 285 0.399445 1.00044 0 1.90701 
286 1 286 0.44 0 0 0 
287 1 287 0.439975 0.0400132 0 0.337802 
288 1 288 0.439951 0.0800301 0 0.770852 
289 1 289 0.439931 0.120049 0 1.0982 
290 1 290 0.439911 0.160068 0 1.17208 
291 1 291 0.439892 0.200086 0 1.02282 
292 1 292 0.439875 0.240102 0 0.963923 
293 1 293 0.439859 0.280119 0 0.988286 
294 1 294 0.439843 0.320135 0 1.22367 
295 1 295 0.439824 0.360152 0 1.57827 
296 1 296 0.439805 0.40017 0 1.82139 
297 1 297 0.439781 0.44019 0 2.01954 
298 1 298 0.439759 0.480209 0 1.99911 
299 1 299 0.439739 0.520227 0 1.91266 
300 1 300 0.439716 0.560244 0 1.68759 
301 1 301 0.439693 0.600261 0 1.50424 
302 1 302 0.439672 0.640278 0 1.29942 
303 1 303 0.439655 0.680295 0 1.35292 
304 1 304 0.439634 0.720315 0 1.54402 
305 1 305 0.439614 0.760338 0 1.85918 
306 1 306 0.439585 0.800361 0 2.14135 
307 1 307 0.439557 0.840388 0 2.28404 
308 1 308 0.439517 0.880412 0 2.25286 
309 1 309 0.43948 0.920438 0 2.07486 
310 1 310 0.439438 0.960461 0 2.06063 
311 1 311 0.439402 1.00048 0 1.95379 
312 1 312 0.48 0 0 0 
313 1 313 0.479968 0.0400134 0 0.36634 
314 1 314 0.479941 0.0800291 0 0.78284 
315 1 315 0.479918 0.120047 0 1.07083 
316 1 316 0.479894 0.160064 0 1.11125 
317 1 317 0.479875 0.200081 0 0.963783 
318 1 318 0.479856 0.240098 0 0.87475 
319 1 319 0.479838 0.280116 0 0.83933 
320 1 320 0.479821 0.320134 0 1.09564 
321 1 321 0.479797 0.360155 0 1.45512 
322 1 322 0.479775 0.400177 0 1.72131 
323 1 323 0.479748 0.4402 0 1.90954 
324 1 324 0.479724 0.480223 0 1.8885 
325 1 325 0.4797 0.520246 0 1.82299 
326 1 326 0.479678 0.560266 0 1.65101 
327 1 327 0.479655 0.600285 0 1.60216 
328 1 328 0.47963 0.640303 0 1.49749 
329 1 329 0.479605 0.680323 0 1.64886 
330 1 330 0.479579 0.720344 0 1.86659 
331 1 331 0.47956 0.760368 0 2.19684 
332 1 332 0.479532 0.800394 0 2.52052 
333 1 333 0.479503 0.840421 0 2.59216 
334 1 334 0.479465 0.880447 0 2.55935 
335 1 335 0.479429 0.920474 0 2.36821 
336 1 336 0.479391 0.960496 0 2.14417 
337 1 337 0.47936 1.00052 0 1.91105 
338 1 338 0.52 0 0 0 
339 1 339 0.519965 0.0400133 0 0.392259 
340 1 340 0.519932 0.0800278 0 0.725654 
341 1 341 0.519905 0.120043 0 0.934629 
342 1 342 0.519879 0.160059 0 0.928885 
343 1 343 0.519857 0.200074 0 0.770722 
344 1 344 0.519835 0.24009 0 0.680939 
345 1 345 0.519815 0.280109 0 0.628605 
346 1 346 0.519794 0.320129 0 0.886156 
347 1 347 0.519768 0.360154 0 1.19202 
348 1 348 0.519744 0.400179 0 1.47669 
349 1 349 0.519713 0.440207 0 1.68242 
350 1 350 0.519687 0.480233 0 1.66893 
351 1 351 0.519662 0.520259 0 1.63738 
352 1 352 0.519637 0.560284 0 1.51637 
353 1 353 0.519611 0.600308 0 1.61785 
354 1 354 0.519588 0.640331 0 1.65614 
355 1 355 0.519569 0.680355 0 1.91092 
356 1 356 0.519543 0.720377 0 2.19011 
357 1 357 0.519519 0.760402 0 2.53416 
358 1 358 0.519485 0.800427 0 2.8806 
359 1 359 0.519454 0.840455 0 2.94517 
360 1 360 0.519417 0.88048 0 2.93767 
361 1 361 0.51938 0.920507 0 2.71816 
362 1 362 0.519346 0.960529 0 2.258 
363 1 363 0.519321 1.00055 0 1.87493 
364 1 364 0.56 0 0 0 
365 1 365 0.55996 0.0400124 0 0.365339 
366 1 366 0.559925 0.0800251 0 0.5479 
367 1 367 0.559894 0.120038 0 0.64193 
368 1 368 0.559863 0.160052 0 0.633358 
369 1 369 0.559838 0.200067 0 0.515465 
370 1 370 0.559813 0.240083 0 0.448292 
371 1 371 0.559789 0.280104 0 0.391772 
372 1 372 0.559765 0.320127 0 0.622731 
373 1 373 0.559734 0.360155 0 0.895926 
374 1 374 0.559705 0.400184 0 1.22117 
375 1 375 0.559672 0.440215 0 1.42533 
376 1 376 0.559644 0.480245 0 1.42671 
377 1 377 0.559615 0.520274 0 1.46973 
378 1 378 0.559589 0.560302 0 1.44789 
379 1 379 0.559566 0.600329 0 1.68682 
380 1 380 0.559539 0.640353 0 1.8418 
381 1 381 0.559513 0.680377 0 2.16198 
382 1 382 0.559484 0.720401 0 2.50665 
383 1 383 0.559462 0.760427 0 2.89491 
384 1 384 0.559431 0.800453 0 3.25843 
385 1 385 0.5594 0.840481 0 3.33157 
386 1 386 0.559365 0.880507 0 3.31556 
387 1 387 0.559331 0.920534 0 3.04817 
388 1 388 0.559301 0.960556 0 2.39544 
389 1 389 0.55928 1.00058 0 1.88056 
390 1 390 0.6 0 0 0 
391 1 391 0.599959 0.040011 0 0.257924 
392 1 392 0.599918 0.0800222 0 0.295958 
393 1 393 0.599882 0.120034 0 0.280198 
394 1 394 0.599848 0.160046 0 0.262123 
395 1 395 0.599819 0.200061 0 0.238629 
396 1 396 0.599789 0.240077 0 0.249823 
397 1 397 0.59976 0.2801 0 0.241514 
398 1 398 0.599731 0.320125 0 0.47803 
399 1 399 0.599698 0.360156 0 0.72633 
400 1 400 0.599667 0.400187 0 1.0781 
401 1 401 0.599631 0.44022 0 1.26554 
402 1 402 0.599601 0.480251 0 1.28299 
403 1 403 0.59957 0.520283 0 1.3903 
404 1 404 0.599542 0.560313 0 1.4556 
405 1 405 0.599515 0.600344 0 1.7957 
406 1 406 0.599491 0.640372 0 2.0605 
407 1 407 0.599473 0.6804 0 2.44007 
408 1 408 0.599448 0.720425 0 2.8003 
409 1 409 0.59942 0.760451 0 3.16534 
410 1 410 0.599385 0.800477 0 3.54103 
411 1 411 0.599353 0.840505 0 3.71002 
412 1 412 0.599318 0.880532 0 3.69809 
413 1 413 0.599286 0.920558 0 3.39235 
414 1 414 0.599259 0.960581 0 2.6547 
415 1 415 0.599241 1.0006 0 2.06984 
416 1 416 0.64 0 0 0 
417 1 417 0.639956 0.0400093 0 0.160446 
418 1 418 0.639912 0.0800189 0 0.0936958 
419 1 419 0.639873 0.12003 0 -0.0186358 
420 1 420 0.639833 0.160042 0 -0.0663011 
421 1 421 0.639799 0.200057 0 0.0121305 
422 1 422 0.639763 0.240076 0 0.137296 
423 1 423 0.639729 0.2801 0 0.196832 
424 1 424 0.639695 0.320128 0 0.463436 
425 1 425 0.639659 0.360161 0 0.7059 
426 1 426 0.639624 0.400193 0 1.06592 
427 1 427 0.639586 0.440227 0 1.27994 
428 1 428 0.639553 0.48026 0 1.34137 
429 1 429 0.639518 0.520293 0 1.47355 
430 1 430 0.63949 0.560324 0 1.59936 
431 1 431 0.639465 0.600355 0 1.99644 
432 1 432 0.639439 0.640382 0 2.31776 
433 1 433 0.639413 0.68041 0 2.67582 
434 1 434 0.639386 0.720436 0 3.03274 
435 1 435 0.639361 0.760464 0 3.4084 
436 1 436 0.639331 0.800492 0 3.77006 
437 1 437 0.6393 0.840521 0 4.00037 
438 1 438 0.639266 0.880549 0 3.94867 
439 1 439 0.63924 0.920576 0 3.63273 
440 1 440 0.639214 0.960599 0 2.93273 
441 1 441 0.639197 1.00062 0 2.34033 
442 1 442 0.68 0 0 0 
443 1 443 0.679954 0.0400071 0 0.0124808 
444 1 444 0.679906 0.0800155 0 -0.16441 
445 1 445 0.679861 0.120027 0 -0.308399 
446 1 446 0.679817 0.16004 0 -0.293741 
447 1 447 0.679778 0.200057 0 -0.0922413 
448 1 448 0.679737 0.240077 0 0.146038 
449 1 449 0.679697 0.280103 0 0.300614 
450 1 450 0.679657 0.320131 0 0.604742 
451 1 451 0.679618 0.360164 0 0.851898 
452 1 452 0.679581 0.400197 0 1.19813 
453 1 453 0.679543 0.44023 0 1.43548 
454 1 454 0.679507 0.480262 0 1.53575 
455 1 455 0.679472 0.520296 0 1.63492 
456 1 456 0.679441 0.560327 0 1.7875 
457 1 457 0.679412 0.60036 0 2.17137 
458 1 458 0.67939 0.640391 0 2.48511 
459 1 459 0.679373 0.680421 0 2.81747 
460 1 460 0.679349 0.720448 0 3.17521 
461 1 461 0.679319 0.760477 0 3.55239 
462 1 462 0.679286 0.800505 0 3.88386 
463 1 463 0.679255 0.840535 0 4.17984 
464 1 464 0.679222 0.880563 0 4.09679 
465 1 465 0.679196 0.920591 0 3.81311 
466 1 466 0.679171 0.960616 0 3.26013 
467 1 467 0.679156 1.00064 0 2.72773 
468 1 468 0.72 0 0 0 
469 1 469 0.719949 0.0400046 0 -0.101454 
470 1 470 0.719898 0.0800128 0 -0.340025 
471 1 471 0.719849 0.120024 0 -0.476445 
472 1 472 0.719801 0.160039 0 -0.376222 
473 1 473 0.719756 0.200058 0 -0.0848234 
474 1 474 0.719709 0.24008 0 0.204585 
475 1 475 0.719664 0.280107 0 0.440789 
476 1 476 0.71962 0.320137 0 0.790448 
477 1 477 0.719579 0.36017 0 1.05087 
478 1 478 0.719538 0.400202 0 1.37015 
479 1 479 0.719498 0.440236 0 1.59475 
480 1 480 0.71946 0.480267 0 1.71114 
481 1 481 0.71942 0.5203 0 1.82316 
482 1 482 0.719388 0.560331 0 2.0582 
483 1 483 0.719362 0.600363 0 2.40548 
484 1 484 0.719337 0.640391 0 2.68897 
485 1 485 0.719309 0.68042 0 2.96464 
486 1 486 0.719285 0.720449 0 3.24821 
487 1 487 0.719259 0.760479 0 3.58687 
488 1 488 0.719232 0.800509 0 3.87988 
489 1 489 0.719202 0.84054 0 4.23196 
490 1 490 0.719171 0.880571 0 4.16414 
491 1 491 0.719149 0.9206 0 3.96697 
492 1 492 0.719124 0.960627 0 3.60049 
493 1 493 0.719109 1.00065 0 3.16122 
494 1 494 0.76 0 0 0 
495 1 495 0.759946 0.0400029 0 -0.126829 
496 1 496 0.75989 0.0800109 0 -0.356539 
497 1 497 0.759836 0.120023 0 -0.489211 
498 1 498 0.759785 0.160039 0 -0.388231 
499 1 499 0.759734 0.20006 0 -0.0761131 
500 1 500 0.759683 0.240084 0 0.273596 
501 1 501 0.759633 0.280112 0 0.56932 
502 1 502 0.759583 0.320141 0 0.872557 
503 1 503 0.75954 0.360171 0 1.10661 
504 1 504 0.759497 0.400202 0 1.41761 
505 1 505 0.759456 0.440234 0 1.66029 
506 1 506 0.759414 0.480264 0 1.81457 
507 1 507 0.759376 0.520296 0 1.94158 
508 1 508 0.759341 0.560327 0 2.20702 
509 1 509 0.759308 0.600359 0 2.4541 
510 1 510 0.759287 0.64039 0 2.73243 
511 1 511 0.759268 0.680422 0 3.01121 
512 1 512 0.759248 0.720451 0 3.24496 
513 1 513 0.759216 0.760483 0 3.58286 
514 1 514 0.759186 0.800513 0 3.86502 
515 1 515 0.759156 0.840545 0 4.2464 
516 1 516 0.759126 0.880576 0 4.20787 
517 1 517 0.759103 0.920607 0 4.09552 
518 1 518 0.759079 0.960635 0 3.92539 
519 1 519 0.759067 1.00066 0 3.62349 
520 1 520 0.8 0 0 0 
521 1 521 0.799938 0.0400023 0 -0.151294 
522 1 522 0.79988 0.0800097 0 -0.374203 
523 1 523 0.799823 0.120022 0 -0.463142 
524 1 524 0.799767 0.160039 0 -0.345879 
525 1 525 0.799711 0.200061 0 -0.0789456 
526 1 526 0.799656 0.240086 0 0.238328 
527 1 527 0.799601 0.280114 0 0.545946 
528 1 528 0.799549 0.320142 0 0.805373 
529 1 529 0.799502 0.360171 0 1.01216 
530 1 530 0.799455 0.4002 0 1.26201 
531 1 531 0.799413 0.44023 0 1.47275 
532 1 532 0.799368 0.480259 0 1.70086 
533 1 533 0.799325 0.520291 0 1.90043 
534 1 534 0.799289 0.56032 0 2.25142 
535 1 535 0.799259 0.600351 0 2.49758 
536 1 536 0.799234 0.64038 0 2.80776 
537 1 537 0.799202 0.680412 0 3.07072 
538 1 538 0.799177 0.720443 0 3.26089 
539 1 539 0.799152 0.760476 0 3.63124 
540 1 540 0.799127 0.800508 0 3.88668 
541 1 541 0.799098 0.840542 0 4.22039 
542 1 542 0.79907 0.880574 0 4.24147 
543 1 543 0.799049 0.920607 0 4.23786 
544 1 544 0.799027 0.960636 0 4.22026 
545 1 545 0.799017 1.00066 0 4.05004 
546 1 546 0.84 0 0 0 
547 1 547 0.839935 0.0400021 0 -0.0219178 
548 1 548 0.839871 0.0800097 0 -0.221177 
549 1 549 0.839809 0.120022 0 -0.367167 
550 1 550 0.839749 0.16004 0 -0.318416 
551 1 551 0.839689 0.200061 0 -0.145319 
552 1 552 0.839629 0.240086 0 0.0742131 
553 1 553 0.839572 0.280111 0 0.332744 
554 1 554 0.839515 0.320137 0 0.528362 
555 1 555 0.839466 0.360163 0 0.720941 
556 1 556 0.839418 0.400188 0 0.948135 
557 1 557 0.839374 0.440215 0 1.15667 
558 1 558 0.839326 0.480242 0 1.46722 
559 1 559 0.839283 0.520273 0 1.74182 
560 1 560 0.839244 0.560303 0 2.18903 
561 1 561 0.839206 0.600337 0 2.46667 
562 1 562 0.839183 0.64037 0 2.81502 
563 1 563 0.839159 0.680405 0 3.12783 
564 1 564 0.839137 0.720438 0 3.34867 
565 1 565 0.839106 0.760472 0 3.74694 
566 1 566 0.839076 0.800505 0 3.99097 
567 1 567 0.839048 0.840539 0 4.31007 
568 1 568 0.839021 0.880571 0 4.43015 
569 1 569 0.838997 0.920604 0 4.50942 
570 1 570 0.838978 0.960633 0 4.59748 
571 1 571 0.838973 1.00066 0 4.56102 
572 1 572 0.88 0 0 0 
573 1 573 0.879928 0.0400024 0 0.0672119 
574 1 574 0.879861 0.0800092 0 -0.0875716 
575 1 575 0.879795 0.120021 0 -0.275639 
576 1 576 0.879731 0.160038 0 -0.332836 
577 1 577 0.879666 0.200058 0 -0.304666 
578 1 578 0.879603 0.240081 0 -0.20524 
579 1 579 0.879542 0.280104 0 0.00960979 
580 1 580 0.879484 0.320127 0 0.155025 
581 1 581 0.879432 0.360149 0 0.330938 
582 1 582 0.879378 0.400172 0 0.537875 
583 1 583 0.879332 0.440198 0 0.744653 
584 1 584 0.879281 0.480224 0 1.13063 
585 1 585 0.879233 0.520255 0 1.47208 
586 1 586 0.879193 0.560285 0 2.01514 
587 1 587 0.879158 0.600318 0 2.38778 
588 1 588 0.879126 0.64035 0 2.81793 
589 1 589 0.879088 0.680386 0 3.22536 
590 1 590 0.87906 0.720422 0 3.5177 
591 1 591 0.879034 0.760459 0 3.9368 
592 1 592 0.879009 0.800493 0 4.18851 
593 1 593 0.878982 0.840528 0 4.4743 
594 1 594 0.878957 0.880561 0 4.64652 
595 1 595 0.878936 0.920595 0 4.76632 
596 1 596 0.87892 0.960624 0 4.87865 
597 1 597 0.878918 1.00065 0 4.92304 
598 1 598 0.92 0 0 0 
599 1 599 0.919927 0.0400031 0 0.0765318 
600 1 600 0.919854 0.0800093 0 -0.0329639 
601 1 601 0.919782 0.12002 0 -0.207279 
602 1 602 0.919714 0.160035 0 -0.372484 
603 1 603 0.919645 0.200052 0 -0.518071 
604 1 604 0.919578 0.240072 0 -0.541148 
605 1 605 0.919515 0.280091 0 -0.355493 
606 1 606 0.919452 0.32011 0 -0.227267 
607 1 607 0.919397 0.360128 0 -0.0680909 
608 1 608 0.919343 0.400148 0 0.124807 
609 1 609 0.919293 0.440171 0 0.351978 
610 1 610 0.91924 0.480197 0 0.835424 
611 1 611 0.919193 0.520226 0 1.26756 
612 1 612 0.919148 0.560258 0 1.88062 
613 1 613 0.919103 0.600295 0 2.33151 
614 1 614 0.91907 0.640333 0 2.82356 
615 1 615 0.919041 0.680373 0 3.3404 
616 1 616 0.919015 0.720411 0 3.73987 
617 1 617 0.918982 0.760449 0 4.16468 
618 1 618 0.918953 0.800484 0 4.42805 
619 1 619 0.918926 0.840519 0 4.6765 
620 1 620 0.918901 0.880551 0 4.88682 
621 1 621 0.918877 0.920584 0 5.08238 
622 1 622 0.918866 0.960614 0 5.21798 
623 1 623 0.918869 1.00064 0 5.30839 
624 1 624 0.96 0 0 0 
625 1 625 0.959922 0.0400036 0 0.134124 
626 1 626 0.959848 0.0800083 0 0.0486631 
627 1 627 0.959772 0.120017 0 -0.185107 
628 1 628 0.959698 0.160029 0 -0.46731 
629 1 629 0.959625 0.200044 0 -0.71405 
630 1 630 0.959554 0.24006 0 -0.84365 
631 1 631 0.959487 0.280076 0 -0.73644 
632 1 632 0.959423 0.320092 0 -0.588998 
633 1 633 0.959365 0.360108 0 -0.343615 
634 1 634 0.959304 0.400126 0 -0.0910873 
635 1 635 0.959251 0.440148 0 0.133557 
636 1 636 0.959194 0.480173 0 0.635245 
637 1 637 0.959141 0.520203 0 1.11999 
638 1 638 0.959095 0.560235 0 1.78745 
639 1 639 0.959052 0.600271 0 2.35409 
640 1 640 0.95901 0.640307 0 2.92613 
641 1 641 0.958964 0.680348 0 3.50573 
642 1 642 0.958929 0.720389 0 3.97888 
643 1 643 0.958902 0.760429 0 4.39235 
644 1 644 0.95888 0.800466 0 4.64687 
645 1 645 0.958852 0.840503 0 4.84761 
646 1 646 0.95883 0.880535 0 5.10032 
647 1 647 0.95881 0.92057 0 5.38146 
648 1 648 0.958801 0.9606 0 5.50339 
649 1 649 0.958804 1.00063 0 5.59186 
650 1 650 1 0 0 0 
651 1 651 0.999924 0.0400033 0 0.0401117 
652 1 652 0.999843 0.0800073 0 -0.0139835 
653 1 653 0.999763 0.120015 0 -0.201897 
654 1 654 0.999685 0.160024 0 -0.53134 
655 1 655 0.999607 0.200036 0 -0.872756 
656 1 656 0.999532 0.240048 0 -1.07137 
657 1 657 0.999463 0.280061 0 -0.966004 
658 1 658 0.999393 0.320073 0 -0.786004 
659 1 659 0.99933 0.360087 0 -0.533471 
660 1 660 0.999269 0.400103 0 -0.242723 
661 1 661 0.999211 0.440123 0 0.0546544 
662 1 662 0.999153 0.480147 0 0.625761 
663 1 663 0.9991 0.520176 0 1.15746 
664 1 664 0.999047 0.560209 0 1.8056 
665 1 665 0.998993 0.600247 0 2.40851 
666 1 666 0.998949 0.640288 0 3.01808 
667 1 667 0.998914 0.680331 0 3.63165 
668 1 668 0.998881 0.720372 0 4.1449 
669 1 669 0.998847 0.760413 0 4.49975 
670 1 670 0.998819 0.800451 0 4.73473 
671 1 671 0.998793 0.840489 0 4.94799 
672 1 672 0.99877 0.880522 0 5.24383 
673 1 673 0.998748 0.920557 0 5.55933 
674 1 674 0.998741 0.960588 0 5.69164 
675 1 675 0.998746 1.00062 0 5.80638 
676 1 676 1.04 0 0 0 
677 1 677 1.03992 0.0400029 0 -0.113841 
678 1 678 1.03984 0.0800062 0 -0.168911 
679 1 679 1.03975 0.120012 0 -0.293863 
680 1 680 1.03967 0.160019 0 -0.602824 
681 1 681 1.03959 0.200029 0 -0.950886 
682 1 682 1.03951 0.240039 0 -1.17831 
683 1 683 1.03944 0.28005 0 -1.10976 
684 1 684 1.03937 0.320061 0 -0.888537 
685 1 685 1.0393 0.360075 0 -0.55008 
686 1 686 1.03923 0.400091 0 -0.178639 
687 1 687 1.03917 0.440111 0 0.157152 
688 1 688 1.03911 0.480134 0 0.747473 
689 1 689 1.03905 0.520161 0 1.32615 
690 1 690 1.03899 0.560192 0 1.96386 
691 1 691 1.03894 0.600226 0 2.5916 
692 1 692 1.03889 0.640262 0 3.18969 
693 1 693 1.03883 0.680303 0 3.75784 
694 1 694 1.03879 0.720345 0 4.29485 
695 1 695 1.03876 0.760388 0 4.59835 
696 1 696 1.03874 0.800428 0 4.72371 
697 1 697 1.03871 0.840468 0 4.87638 
698 1 698 1.03869 0.880505 0 5.21598 
699 1 699 1.03868 0.920542 0 5.60981 
700 1 700 1.03867 0.960576 0 5.84807 
701 1 701 1.03867 1.00061 0 6.03835 
702 1 702 1.08 0 0 0 
703 1 703 1.07992 0.0400022 0 -0.237075 
704 1 704 1.07983 0.0800057 0 -0.318216 
705 1 705 1.07975 0.12001 0 -0.398939 
706 1 706 1.07966 0.160016 0 -0.65463 
707 1 707 1.07957 0.200024 0 -0.945759 
708 1 708 1.07949 0.240032 0 -1.12523 
709 1 709 1.07941 0.280042 0 -1.03812 
710 1 710 1.07934 0.320053 0 -0.772141 
711 1 711 1.07926 0.360066 0 -0.399654 
712 1 712 1.0792 0.400081 0 0.0198432 
713 1 713 1.07913 0.440099 0 0.406686 
714 1 714 1.07906 0.480121 0 1.00552 
715 1 715 1.079 0.520147 0 1.60263 
716 1 716 1.07894 0.560175 0 2.17126 
717 1 717 1.07888 0.600209 0 2.74941 
718 1 718 1.07882 0.640247 0 3.31392 
719 1 719 1.07878 0.680287 0 3.78622 
720 1 720 1.07874 0.720327 0 4.24905 
721 1 721 1.07871 0.760369 0 4.49649 
722 1 722 1.07868 0.80041 0 4.59599 
723 1 723 1.07865 0.840453 0 4.77732 
724 1 724 1.07863 0.880492 0 5.17865 
725 1 725 1.07861 0.920531 0 5.61925 
726 1 726 1.0786 0.960567 0 5.96129 
727 1 727 1.0786 1.0006 0 6.23187 
728 1 728 1.12 0 0 0 
729 1 729 1.11991 0.0400011 0 -0.366438 
730 1 730 1.11983 0.0800042 0 -0.460436 
731 1 731 1.11974 0.120009 0 -0.471739 
732 1 732 1.11964 0.160014 0 -0.638197 
733 1 733 1.11955 0.200021 0 -0.825002 
734 1 734 1.11947 0.240028 0 -0.914166 
735 1 735 1.11938 0.280038 0 -0.829781 
736 1 736 1.11931 0.320049 0 -0.579622 
737 1 737 1.11923 0.360064 0 -0.206555 
738 1 738 1.11916 0.400081 0 0.274923 
739 1 739 1.11909 0.4401 0 0.748892 
740 1 740 1.11902 0.48012 0 1.33751 
741 1 741 1.11895 0.520144 0 1.8964 
742 1 742 1.11888 0.56017 0 2.3479 
743 1 743 1.11883 0.600198 0 2.83377 
744 1 744 1.11876 0.640228 0 3.36349 
745 1 745 1.1187 0.680264 0 3.75876 
746 1 746 1.11865 0.720303 0 4.17219 
747 1 747 1.11862 0.760345 0 4.40517 
748 1 748 1.11859 0.800388 0 4.4516 
749 1 749 1.11857 0.840433 0 4.58646 
750 1 750 1.11854 0.880477 0 5.00646 
751 1 751 1.11853 0.92052 0 5.49014 
752 1 752 1.11852 0.96056 0 5.96366 
753 1 753 1.11852 1.0006 0 6.33293 
754 1 754 1.16 0 0 0 
755 1 755 1.15991 0.0399996 0 -0.509853 
756 1 756 1.15982 0.0800032 0 -0.640183 
757 1 757 1.15972 0.120008 0 -0.584104 
758 1 758 1.15963 0.160012 0 -0.625068 
759 1 759 1.15953 0.200017 0 -0.658795 
760 1 760 1.15944 0.240023 0 -0.631612 
761 1 761 1.15936 0.280033 0 -0.528904 
762 1 762 1.15928 0.320045 0 -0.23415 
763 1 763 1.1592 0.360059 0 0.156454 
764 1 764 1.15912 0.400076 0 0.602425 
765 1 765 1.15905 0.440095 0 1.06329 
766 1 766 1.15898 0.480115 0 1.5955 
767 1 767 1.15891 0.520138 0 2.12612 
768 1 768 1.15884 0.560163 0 2.51126 
769 1 769 1.15876 0.600191 0 2.86797 
770 1 770 1.1587 0.640223 0 3.29468 
771 1 771 1.15865 0.680256 0 3.60525 
772 1 772 1.15861 0.720292 0 3.94878 
773 1 773 1.15856 0.760333 0 4.16755 
774 1 774 1.15852 0.800377 0 4.24368 
775 1 775 1.1585 0.840423 0 4.45044 
776 1 776 1.15847 0.880469 0 4.94738 
777 1 777 1.15845 0.920514 0 5.45913 
778 1 778 1.15845 0.960556 0 6.04467 
779 1 779 1.15844 1.0006 0 6.5098 
780 1 780 1.2 0 0 0 
781 1 781 1.1999 0.0399987 0 -0.521473 
782 1 782 1.1998 0.0800017 0 -0.690988 
783 1 783 1.19971 0.120005 0 -0.624272 
784 1 784 1.19961 0.160009 0 -0.578436 
785 1 785 1.19952 0.200014 0 -0.474924 
786 1 786 1.19942 0.240019 0 -0.29563 
787 1 787 1.19933 0.280028 0 -0.161536 
788 1 788 1.19925 0.32004 0 0.0798645 
789 1 789 1.19917 0.360056 0 0.394478 
790 1 790 1.19909 0.400074 0 0.814464 