ITEM: TIMESTEP
0
ITEM: NUMBER OF ATOMS
6875
ITEM: BOX BOUNDS sm sm sm
0 4
0 2
0 0
ITEM: ATOMS id type tag x y z damage s11 s22 s33 s12 s13 s23 vx T ienergy 
1 1 1 0.0199982 0.0199996 0 0 -0.0104729 -0.0118762 -0.007153 -0.00402041 0 0 0.0139126 0 0 
2 1 2 0.019997 0.0599984 0 0 -0.0185774 -0.014927 -0.01072 -0.00744048 0 0 -0.0759833 0 0 
3 1 3 0.0199965 0.0999974 0 0 -0.031488 -0.02348 -0.0176008 -0.0142706 0 0 0.0292753 0 0 
4 1 4 0.0199968 0.139996 0 0 -0.0451622 -0.0225021 -0.0216717 -0.0175938 0 0 0.388766 0 0 
5 1 5 0.0199954 0.179997 0 0 -0.0568444 -0.0223996 -0.0253812 -0.0156903 0 0 0.516325 0 0 
6 1 6 0.0199951 0.219998 0 0 -0.0629966 -0.0197695 -0.0265093 -0.0101387 0 0 0.556271 0 0 
7 1 7 0.0199939 0.26 0 0 -0.0755799 -0.0242352 -0.0319736 -0.00459277 0 0 0.561634 0 0 
8 1 8 0.019994 0.300001 0 0 -0.0828457 -0.033881 -0.0373925 0.0054068 0 0 0.377635 0 0 
9 1 9 0.0199938 0.340002 0 0 -0.0787395 -0.0366545 -0.0369643 0.00574589 0 0 0.293356 0 0 
10 1 10 0.0199943 0.380001 0 0 -0.0780181 -0.0484498 -0.0405129 0.00383943 0 0 -0.0286492 0 0 
11 1 11 0.0199937 0.419999 0 0 -0.0718723 -0.05103 -0.0393694 -0.0074656 0 0 -0.179089 0 0 
12 1 12 0.0199929 0.459996 0 0 -0.0687677 -0.0505183 -0.0382118 -0.0194416 0 0 -0.492938 0 0 
13 1 13 0.01999 0.499994 0 0 -0.0732313 -0.0458415 -0.0381438 -0.0326643 0 0 -0.583785 0 0 
14 1 14 0.0199867 0.539992 0 0 -0.0760365 -0.0391376 -0.0368956 -0.0341574 0 0 -0.667809 0 0 
15 1 15 0.0199803 0.579993 0 0 -0.0787904 -0.0329516 -0.0357968 -0.0372161 0 0 -0.574019 0 0 
16 1 16 0.0199739 0.619993 0 0 -0.0864732 -0.0328341 -0.0382233 -0.0304271 0 0 -0.834261 0 0 
17 1 17 0.0199702 0.659994 0 0 -0.0864469 -0.0380947 -0.0399026 -0.0260031 0 0 -1.21883 0 0 
18 1 18 0.0199728 0.699994 0 0 -0.0864531 -0.0417802 -0.0410862 -0.0265155 0 0 -1.33006 0 0 
19 1 19 0.0199754 0.739994 0 0 -0.105393 -0.056218 -0.0517877 -0.0326951 0 0 -1.27429 0 0 
20 1 20 0.0199799 0.779991 0 0 -0.117248 -0.0657673 -0.0586512 -0.0332096 0 0 -1.50575 0 0 
21 1 21 0.0199816 0.819991 0 0 -0.141738 -0.0649322 -0.0662363 -0.0473084 0 0 -0.802342 0 0 
22 1 22 0.019983 0.859991 0 0 -0.177704 -0.0777352 -0.0818815 -0.0350792 0 0 -0.849474 0 0 
23 1 23 0.0199841 0.899994 0 0 -0.1823 -0.0754806 -0.0826313 -0.0306615 0 0 -0.740929 0 0 
24 1 24 0.0199859 0.939996 0 0 -0.180138 -0.0565638 -0.0758775 -0.0165218 0 0 -0.147632 0 0 
25 1 25 0.0199847 0.980004 0 0 -0.161529 -0.0324189 -0.0721369 -0.00138748 0 0 0.119415 0 0 
26 1 26 0.0600001 0.0199986 0 0 -0.00980431 -0.0206494 -0.00974784 -0.00408122 0 0 0.175076 0 0 
27 1 27 0.06 0.0599958 0 0 -0.0232286 -0.0306089 -0.0172405 -0.0081383 0 0 0.17807 0 0 
28 1 28 0.0599961 0.0999928 0 0 -0.0360169 -0.0336433 -0.0223085 -0.0119618 0 0 0.710091 0 0 
29 1 29 0.0599933 0.139991 0 0 -0.0397401 -0.0224207 -0.0199023 -0.0134385 0 0 1.38532 0 0 
30 1 30 0.059989 0.179991 0 0 -0.0596199 -0.0212244 -0.0258955 -0.0155357 0 0 1.62946 0 0 
31 1 31 0.0599874 0.219993 0 0 -0.0736166 -0.014626 -0.0282685 -0.0110416 0 0 1.51151 0 0 
32 1 32 0.0599841 0.259997 0 0 -0.0847552 -0.0156103 -0.0321554 -0.0154428 0 0 1.31977 0 0 
33 1 33 0.0599843 0.3 0 0 -0.0901715 -0.0307302 -0.0387357 2.79128e-05 0 0 0.720545 0 0 
34 1 34 0.0599859 0.340001 0 0 -0.0822431 -0.038459 -0.0386722 -0.00531174 0 0 0.71722 0 0 
35 1 35 0.0599891 0.379999 0 0 -0.0747984 -0.0633217 -0.0442544 0.00163823 0 0 0.205701 0 0 
36 1 36 0.0599918 0.419993 0 0 -0.0631615 -0.0707994 -0.0429192 -0.0116648 0 0 0.385258 0 0 
37 1 37 0.0599943 0.459986 0 0 -0.0614442 -0.0724377 -0.0428971 -0.0143837 0 0 0.369301 0 0 
38 1 38 0.0599938 0.49998 0 0 -0.0705742 -0.06197 -0.042468 -0.033051 0 0 0.798737 0 0 
39 1 39 0.0599947 0.539977 0 0 -0.0861377 -0.0493514 -0.0434117 -0.0237562 0 0 0.775084 0 0 
40 1 40 0.0599979 0.579977 0 0 -0.0973341 -0.0393881 -0.043807 -0.0350928 0 0 1.10116 0 0 
41 1 41 0.0600025 0.619979 0 0 -0.104838 -0.0357698 -0.0450536 -0.0256518 0 0 1.46738 0 0 
42 1 42 0.0600059 0.65998 0 0 -0.108689 -0.0479842 -0.0502042 -0.027196 0 0 1.50137 0 0 
43 1 43 0.060005 0.69998 0 0 -0.111635 -0.0598662 -0.0549601 -0.0298522 0 0 1.58879 0 0 
44 1 44 0.0599989 0.739978 0 0 -0.111514 -0.0688708 -0.0578082 -0.0413795 0 0 1.18662 0 0 
45 1 45 0.0599914 0.779976 0 0 -0.133972 -0.0806574 -0.0687909 -0.0366364 0 0 0.46631 0 0 
46 1 46 0.059982 0.819975 0 0 -0.152049 -0.0693312 -0.0709539 -0.0547455 0 0 0.61589 0 0 
47 1 47 0.0599718 0.859977 0 0 -0.163798 -0.0556161 -0.0703303 -0.0349092 0 0 0.314192 0 0 
48 1 48 0.0599669 0.899981 0 0 -0.185923 -0.0508842 -0.0758982 -0.0290793 0 0 0.348919 0 0 
49 1 49 0.0599616 0.93999 0 0 -0.205126 -0.020386 -0.0722843 -0.018257 0 0 0.819982 0 0 
50 1 50 0.0599591 0.980004 0 0 -0.157705 0.0210557 -0.0437916 -0.0161423 0 0 0.543745 0 0 
51 1 51 0.0999975 0.0199974 0 0 -0.0195698 -0.036112 -0.017846 -0.00716022 0 0 -0.172569 0 0 
52 1 52 0.0999939 0.0599943 0 0 -0.0200049 -0.0315228 -0.0165067 -0.0114602 0 0 -0.183349 0 0 
53 1 53 0.0999912 0.0999907 0 0 -0.0234489 -0.0279382 -0.0164539 -0.011178 0 0 1.39031 0 0 
54 1 54 0.0999876 0.139989 0 0 -0.0347426 -0.0216742 -0.018065 -0.0155673 0 0 2.14995 0 0 
55 1 55 0.0999801 0.179988 0 0 -0.0605047 -0.0294711 -0.0288254 -0.0224661 0 0 2.33907 0 0 
56 1 56 0.0999744 0.21999 0 0 -0.0770942 -0.0176606 -0.0303588 -0.0150315 0 0 2.08359 0 0 
57 1 57 0.0999698 0.259993 0 0 -0.0949803 -0.0285132 -0.0395739 -0.0233302 0 0 1.8579 0 0 
58 1 58 0.0999694 0.299995 0 0 -0.0983915 -0.0339561 -0.0424104 -0.00461026 0 0 1.02334 0 0 
59 1 59 0.0999732 0.339995 0 0 -0.0925077 -0.0504779 -0.0458217 -0.0121651 0 0 0.942025 0 0 
60 1 60 0.0999785 0.379993 0 0 -0.0791504 -0.0660207 -0.0465193 0.000209398 0 0 0.253189 0 0 
61 1 61 0.099983 0.419986 0 0 -0.0713957 -0.0857892 -0.0503695 -0.016314 0 0 0.232472 0 0 
62 1 62 0.0999823 0.459979 0 0 -0.0671999 -0.0764177 -0.0460212 -0.0168871 0 0 -0.297987 0 0 
63 1 63 0.0999763 0.499972 0 0 -0.076176 -0.0780104 -0.0494104 -0.0366385 0 0 -0.631502 0 0 
64 1 64 0.0999665 0.539968 0 0 -0.0868154 -0.0507877 -0.0440909 -0.0292432 0 0 -0.723571 0 0 
65 1 65 0.0999561 0.579967 0 0 -0.106452 -0.0551195 -0.0517739 -0.0356335 0 0 -0.856364 0 0 
66 1 66 0.0999469 0.619967 0 0 -0.101274 -0.0384777 -0.0447799 -0.0279211 0 0 -0.606201 0 0 
67 1 67 0.0999447 0.659967 0 0 -0.10701 -0.0581778 -0.0529346 -0.0267373 0 0 -1.22296 0 0 
68 1 68 0.0999476 0.699965 0 0 -0.0975523 -0.0498593 -0.0472359 -0.0311475 0 0 -1.19144 0 0 
69 1 69 0.0999508 0.739963 0 0 -0.109285 -0.0792273 -0.0604168 -0.036119 0 0 -1.67219 0 0 
70 1 70 0.0999507 0.77996 0 0 -0.107013 -0.0541523 -0.0516477 -0.045438 0 0 -1.61825 0 0 
71 1 71 0.0999443 0.81996 0 0 -0.147852 -0.0684522 -0.0693298 -0.0564206 0 0 -1.32995 0 0 
72 1 72 0.0999376 0.859963 0 0 -0.160754 -0.0451008 -0.0659858 -0.0382531 0 0 -1.13761 0 0 
73 1 73 0.099933 0.899971 0 0 -0.18293 -0.0150469 -0.063449 -0.0420765 0 0 0.3834 0 0 
74 1 74 0.0999268 0.939983 0 0 -0.1953 -0.00961772 -0.065677 -0.029956 0 0 1.09623 0 0 
75 1 75 0.0999292 0.979996 0 0 -0.180706 -0.0096017 -0.060995 0.00435366 0 0 0.476406 0 0 
76 1 76 0.139999 0.0199971 0 0 -0.0264972 -0.0462674 -0.0233184 -0.00596787 0 0 0.0704734 0 0 
77 1 77 0.139997 0.0599934 0 0 -0.0247446 -0.029218 -0.0172859 -0.00672121 0 0 0.325641 0 0 
78 1 78 0.139992 0.0999899 0 0 -0.0367112 -0.0382957 -0.0240335 -0.0121149 0 0 1.82818 0 0 
79 1 79 0.139984 0.139988 0 0 -0.0482904 -0.0321438 -0.025769 -0.0208721 0 0 2.48544 0 0 
80 1 80 0.139974 0.179986 0 0 -0.0659887 -0.0415121 -0.034444 -0.0280189 0 0 2.9613 0 0 
81 1 81 0.139966 0.219986 0 0 -0.075131 -0.028217 -0.0331129 -0.0235121 0 0 2.67271 0 0 
82 1 82 0.139959 0.259986 0 0 -0.0925833 -0.0446256 -0.0439702 -0.0279596 0 0 2.13338 0 0 
83 1 83 0.139959 0.299986 0 0 -0.0970575 -0.0438543 -0.045159 -0.0119682 0 0 1.22897 0 0 
84 1 84 0.139964 0.339985 0 0 -0.101973 -0.0652327 -0.0535911 -0.0129854 0 0 1.01585 0 0 
85 1 85 0.139973 0.379981 0 0 -0.0880363 -0.0689072 -0.0502958 -0.00472866 0 0 0.440343 0 0 
86 1 86 0.139981 0.419975 0 0 -0.0833888 -0.0887027 -0.0551498 -0.0187557 0 0 0.482865 0 0 
87 1 87 0.139984 0.459967 0 0 -0.0762071 -0.0758325 -0.0487202 -0.0290833 0 0 0.572398 0 0 
88 1 88 0.13998 0.499961 0 0 -0.0951695 -0.0874443 -0.0585256 -0.0429413 0 0 0.460844 0 0 
89 1 89 0.139974 0.539956 0 0 -0.0992353 -0.0653234 -0.0527338 -0.0434518 0 0 0.843304 0 0 
90 1 90 0.139971 0.579954 0 0 -0.122994 -0.0701871 -0.0619115 -0.0407613 0 0 0.915941 0 0 
91 1 91 0.139974 0.619952 0 0 -0.127988 -0.0623347 -0.060997 -0.0306907 0 0 1.56924 0 0 
92 1 92 0.139978 0.659952 0 0 -0.14698 -0.0837017 -0.0739417 -0.0266914 0 0 1.77889 0 0 
93 1 93 0.139978 0.69995 0 0 -0.141944 -0.0666053 -0.0668456 -0.0304004 0 0 1.79079 0 0 
94 1 94 0.139972 0.739949 0 0 -0.153912 -0.0942159 -0.0795416 -0.0332235 0 0 1.01581 0 0 
95 1 95 0.139962 0.779947 0 0 -0.150126 -0.0690027 -0.0702415 -0.0461177 0 0 0.568955 0 0 
96 1 96 0.139944 0.819948 0 0 -0.155094 -0.064202 -0.0702919 -0.0618787 0 0 0.621335 0 0 
97 1 97 0.139926 0.859952 0 0 -0.177846 -0.0484642 -0.0725412 -0.0418585 0 0 0.309765 0 0 
98 1 98 0.139911 0.899961 0 0 -0.188488 -0.0126321 -0.0644552 -0.0558363 0 0 1.5323 0 0 
99 1 99 0.1399 0.939973 0 0 -0.192176 -0.00641063 -0.0636563 -0.0296361 0 0 1.86098 0 0 
100 1 100 0.139902 0.979988 0 0 -0.182303 0.00792787 -0.0558902 0.0012295 0 0 0.936315 0 0 
101 1 101 0.179997 0.019998 0 0 -0.0153062 -0.0347563 -0.0160305 -0.006272 0 0 0.103913 0 0 
102 1 102 0.179991 0.0599943 0 0 -0.0173648 -0.0277709 -0.0144548 -0.0081919 0 0 0.497306 0 0 
103 1 103 0.179986 0.0999904 0 0 -0.03921 -0.0439399 -0.0266456 -0.0151888 0 0 2.06703 0 0 
104 1 104 0.179978 0.139987 0 0 -0.0462785 -0.039893 -0.0276105 -0.0223139 0 0 2.96082 0 0 
105 1 105 0.179966 0.179984 0 0 -0.0569096 -0.0444081 -0.0324625 -0.0305932 0 0 3.33642 0 0 
106 1 106 0.179955 0.219981 0 0 -0.0786618 -0.0554977 -0.0429875 -0.0307877 0 0 2.7984 0 0 
107 1 107 0.179947 0.259978 0 0 -0.090606 -0.0580932 -0.0476507 -0.0302594 0 0 2.1322 0 0 
108 1 108 0.179945 0.299976 0 0 -0.0997714 -0.0677503 -0.0536917 -0.0179088 0 0 1.22924 0 0 
109 1 109 0.17995 0.339972 0 0 -0.101766 -0.0720518 -0.0557135 -0.0118534 0 0 0.77738 0 0 
110 1 110 0.179961 0.379968 0 0 -0.0982129 -0.078594 -0.0566672 -0.00525358 0 0 0.261504 0 0 
111 1 111 0.179969 0.419962 0 0 -0.0977821 -0.0813558 -0.0574094 -0.01918 0 0 0.0870989 0 0 
112 1 112 0.179969 0.459957 0 0 -0.0927797 -0.0826416 -0.0562178 -0.0313134 0 0 -0.319288 0 0 
113 1 113 0.17996 0.499951 0 0 -0.0900445 -0.0758888 -0.0531768 -0.049657 0 0 -0.798551 0 0 
114 1 114 0.179945 0.539946 0 0 -0.0976655 -0.0729598 -0.0546792 -0.0471481 0 0 -0.923765 0 0 
115 1 115 0.179929 0.579942 0 0 -0.107739 -0.0703034 -0.0570585 -0.0487016 0 0 -0.811169 0 0 
116 1 116 0.179917 0.61994 0 0 -0.11164 -0.0585039 -0.0545279 -0.0288927 0 0 -0.912683 0 0 
117 1 117 0.179914 0.659938 0 0 -0.116264 -0.0711488 -0.0600646 -0.0275677 0 0 -1.06445 0 0 
118 1 118 0.179917 0.699936 0 0 -0.108827 -0.0503405 -0.0510103 -0.0242451 0 0 -1.22482 0 0 
119 1 119 0.17992 0.739936 0 0 -0.119223 -0.0655231 -0.0592116 -0.0343104 0 0 -1.70849 0 0 
120 1 120 0.179917 0.779936 0 0 -0.121169 -0.0436346 -0.0528182 -0.046701 0 0 -1.59555 0 0 
121 1 121 0.179906 0.819938 0 0 -0.136561 -0.0518575 -0.0603875 -0.0571627 0 0 -1.21919 0 0 
122 1 122 0.179891 0.859943 0 0 -0.142539 -0.0190969 -0.0517946 -0.0529667 0 0 -0.248211 0 0 
123 1 123 0.179876 0.899952 0 0 -0.17583 -0.0200045 -0.0627597 -0.0513398 0 0 1.12813 0 0 
124 1 124 0.179866 0.939964 0 0 -0.186847 -0.00764549 -0.0623505 -0.029375 0 0 1.64788 0 0 
125 1 125 0.179869 0.979978 0 0 -0.195275 0.0048096 -0.0610571 -0.0025955 0 0 1.31613 0 0 
126 1 126 0.219999 0.0199982 0 0 -0.0219868 -0.0324386 -0.01743 -0.00930991 0 0 0.454912 0 0 
127 1 127 0.219994 0.0599948 0 0 -0.0336499 -0.0376961 -0.0228512 -0.0131531 0 0 1.23432 0 0 
128 1 128 0.219986 0.0999907 0 0 -0.0418994 -0.0430812 -0.0272269 -0.0189098 0 0 2.48208 0 0 
129 1 129 0.219975 0.139987 0 0 -0.0496968 -0.0490481 -0.0316395 -0.0210347 0 0 3.02977 0 0 
130 1 130 0.219962 0.179983 0 0 -0.0608267 -0.056622 -0.0376334 -0.0329691 0 0 3.42718 0 0 
131 1 131 0.219949 0.219977 0 0 -0.0789988 -0.0794782 -0.0507826 -0.0309426 0 0 2.91257 0 0 
132 1 132 0.21994 0.259971 0 0 -0.0799348 -0.0732212 -0.0490753 -0.0276477 0 0 2.26459 0 0 
133 1 133 0.219937 0.299965 0 0 -0.0914452 -0.0824712 -0.0557384 -0.016663 0 0 1.44924 0 0 
134 1 134 0.219943 0.339958 0 0 -0.100555 -0.0855223 -0.0596443 -0.00795959 0 0 0.94432 0 0 
135 1 135 0.219954 0.379953 0 0 -0.0993848 -0.0751288 -0.0559352 -0.000500998 0 0 0.536807 0 0 
136 1 136 0.219963 0.419948 0 0 -0.102338 -0.0785363 -0.0579711 -0.0162423 0 0 0.592216 0 0 
137 1 137 0.219966 0.459944 0 0 -0.100589 -0.0711178 -0.0550325 -0.0250852 0 0 0.551028 0 0 
138 1 138 0.219961 0.499939 0 0 -0.109899 -0.0860522 -0.0628096 -0.0465106 0 0 0.723546 0 0 
139 1 139 0.219952 0.539934 0 0 -0.112122 -0.0735065 -0.0594958 -0.0445685 0 0 0.728349 0 0 
140 1 140 0.219945 0.57993 0 0 -0.135081 -0.0976325 -0.0745985 -0.0452429 0 0 0.926916 0 0 
141 1 141 0.219944 0.619926 0 0 -0.140773 -0.0763732 -0.0696056 -0.0275368 0 0 1.26123 0 0 
142 1 142 0.219946 0.659925 0 0 -0.17233 -0.0998999 -0.0872738 -0.0281692 0 0 1.5944 0 0 
143 1 143 0.219944 0.699923 0 0 -0.176509 -0.0818098 -0.0828111 -0.0255074 0 0 1.51912 0 0 
144 1 144 0.219938 0.739924 0 0 -0.183908 -0.0891919 -0.087553 -0.0329216 0 0 0.829334 0 0 
145 1 145 0.219924 0.779925 0 0 -0.171036 -0.0537179 -0.0720415 -0.0536184 0 0 0.765072 0 0 
146 1 146 0.219903 0.81993 0 0 -0.175166 -0.0590901 -0.0750865 -0.0581299 0 0 0.372204 0 0 
147 1 147 0.21988 0.859935 0 0 -0.165952 -0.0275576 -0.0620175 -0.0630737 0 0 1.00047 0 0 
148 1 148 0.219857 0.899945 0 0 -0.168983 -0.0180182 -0.0599256 -0.0598048 0 0 1.80594 0 0 
149 1 149 0.219841 0.939955 0 0 -0.182144 -0.0214905 -0.0652828 -0.0336144 0 0 2.1575 0 0 
150 1 150 0.219839 0.979968 0 0 -0.208408 0.00400662 -0.0655273 -0.0102582 0 0 2.04205 0 0 
151 1 151 0.259996 0.0199984 0 0 -0.0188854 -0.0293018 -0.0154342 -0.0134435 0 0 0.518534 0 0 
152 1 152 0.259987 0.0599953 0 0 -0.0316684 -0.0351689 -0.021405 -0.0150756 0 0 1.40242 0 0 
153 1 153 0.259979 0.099992 0 0 -0.0419147 -0.0366809 -0.0251765 -0.0200732 0 0 2.67202 0 0 
154 1 154 0.259969 0.139988 0 0 -0.0534756 -0.0561859 -0.0351352 -0.0195527 0 0 3.05675 0 0 
155 1 155 0.259956 0.179982 0 0 -0.0528189 -0.0654054 -0.0378805 -0.0323464 0 0 3.51893 0 0 
156 1 156 0.259942 0.219975 0 0 -0.057988 -0.0835546 -0.0453506 -0.0285773 0 0 3.03532 0 0 
157 1 157 0.259932 0.259965 0 0 -0.065406 -0.0918438 -0.0503848 -0.0258834 0 0 2.27984 0 0 
158 1 158 0.259929 0.299956 0 0 -0.0722521 -0.0872127 -0.0510995 -0.0163548 0 0 1.4534 0 0 
159 1 159 0.259932 0.339948 0 0 -0.087878 -0.0966252 -0.0591333 -0.00654305 0 0 0.806826 0 0 
160 1 160 0.259941 0.379941 0 0 -0.0897172 -0.0657012 -0.0498102 -0.000719811 0 0 0.470025 0 0 
161 1 161 0.259948 0.419937 0 0 -0.11001 -0.0806422 -0.0611093 -0.0144134 0 0 0.239892 0 0 
162 1 162 0.259948 0.459934 0 0 -0.0993276 -0.0552447 -0.0495437 -0.0237076 0 0 -0.255675 0 0 
163 1 163 0.259939 0.499932 0 0 -0.106691 -0.0785541 -0.059382 -0.0444438 0 0 -0.638228 0 0 
164 1 164 0.259923 0.539927 0 0 -0.0966851 -0.069969 -0.0534151 -0.0444548 0 0 -0.949672 0 0 
165 1 165 0.259903 0.579923 0 0 -0.10678 -0.0814796 -0.0603418 -0.0488643 0 0 -0.871615 0 0 
166 1 166 0.259888 0.619918 0 0 -0.113974 -0.0807674 -0.062419 -0.0254696 0 0 -1.45823 0 0 
167 1 167 0.259881 0.659914 0 0 -0.105375 -0.0630306 -0.0539703 -0.0250173 0 0 -1.61166 0 0 
168 1 168 0.259881 0.699913 0 0 -0.108559 -0.0520215 -0.0514593 -0.0200024 0 0 -1.76355 0 0 
169 1 169 0.259882 0.739914 0 0 -0.117045 -0.0443316 -0.0517152 -0.02448 0 0 -2.20137 0 0 
170 1 170 0.259877 0.779917 0 0 -0.119729 -0.0267576 -0.0469395 -0.045369 0 0 -1.47208 0 0 
171 1 171 0.259863 0.819922 0 0 -0.13209 -0.026624 -0.0508555 -0.050758 0 0 -1.27444 0 0 
172 1 172 0.259845 0.859929 0 0 -0.142632 -0.0148511 -0.0504653 -0.0622038 0 0 -0.0151335 0 0 
173 1 173 0.259825 0.899938 0 0 -0.156109 -0.0203896 -0.0565585 -0.0509534 0 0 0.785819 0 0 
174 1 174 0.25981 0.939948 0 0 -0.174092 -0.00983582 -0.058962 -0.0370926 0 0 1.8238 0 0 
175 1 175 0.259803 0.979962 0 0 -0.21111 -0.00140518 -0.0681273 -0.0151053 0 0 2.1997 0 0 
176 1 176 0.299997 0.0199984 0 0 -0.0267819 -0.0320349 -0.0188418 -0.0191893 0 0 0.886893 0 0 
177 1 177 0.299989 0.0599955 0 0 -0.0445567 -0.0366189 -0.0260034 -0.0181882 0 0 1.88478 0 0 
178 1 178 0.299978 0.0999933 0 0 -0.0418519 -0.0305289 -0.0231835 -0.0202896 0 0 2.79891 0 0 
179 1 179 0.299966 0.13999 0 0 -0.0482967 -0.0573816 -0.0338564 -0.0173757 0 0 2.96693 0 0 
180 1 180 0.299955 0.179983 0 0 -0.0440155 -0.0690311 -0.0362201 -0.0263133 0 0 3.48124 0 0 
181 1 181 0.299943 0.219974 0 0 -0.040588 -0.08804 -0.0412111 -0.0231444 0 0 3.1477 0 0 
182 1 182 0.299933 0.259962 0 0 -0.0457996 -0.102727 -0.0475882 -0.023811 0 0 2.48957 0 0 
183 1 183 0.299928 0.299949 0 0 -0.0506961 -0.0955293 -0.0468513 -0.0146769 0 0 1.93661 0 0 
184 1 184 0.299929 0.339938 0 0 -0.0699996 -0.0989416 -0.0541366 -0.00820592 0 0 1.38637 0 0 
185 1 185 0.299935 0.37993 0 0 -0.0813887 -0.0684116 -0.0480019 -0.0047213 0 0 1.09741 0 0 
186 1 186 0.299941 0.419926 0 0 -0.104865 -0.0707112 -0.0562719 -0.0159516 0 0 0.977584 0 0 
187 1 187 0.299942 0.459924 0 0 -0.112918 -0.0570314 -0.0544745 -0.0221307 0 0 0.899897 0 0 
188 1 188 0.299937 0.499922 0 0 -0.127345 -0.0721201 -0.0639444 -0.0423413 0 0 1.1173 0 0 
189 1 189 0.299928 0.539919 0 0 -0.135532 -0.0896957 -0.0722022 -0.0354265 0 0 0.776318 0 0 
190 1 190 0.29992 0.579915 0 0 -0.135131 -0.0938897 -0.0734148 -0.0442255 0 0 1.10931 0 0 
191 1 191 0.299915 0.61991 0 0 -0.15896 -0.103419 -0.0841154 -0.0242308 0 0 0.894221 0 0 
192 1 192 0.299912 0.659907 0 0 -0.191192 -0.108128 -0.0959667 -0.0204362 0 0 0.780881 0 0 
193 1 193 0.299907 0.699906 0 0 -0.198152 -0.0877214 -0.091651 -0.0192113 0 0 0.870414 0 0 
194 1 194 0.299897 0.739908 0 0 -0.205188 -0.0775297 -0.0906382 -0.0220564 0 0 0.178584 0 0 
195 1 195 0.299882 0.779913 0 0 -0.194935 -0.0520837 -0.0791835 -0.0408803 0 0 0.415138 0 0 
196 1 196 0.299859 0.81992 0 0 -0.180236 -0.0415893 -0.0710974 -0.0416504 0 0 0.120823 0 0 
197 1 197 0.299833 0.859928 0 0 -0.166235 -0.0224572 -0.060476 -0.0556593 0 0 0.944964 0 0 
198 1 198 0.299807 0.899937 0 0 -0.172 -0.0246034 -0.0630084 -0.0399423 0 0 1.09642 0 0 
199 1 199 0.299786 0.939948 0 0 -0.185182 -0.00693684 -0.061587 -0.0328138 0 0 2.22959 0 0 
200 1 200 0.29977 0.979962 0 0 -0.221703 -0.00769079 -0.073539 -0.0115709 0 0 2.49008 0 0 
201 1 201 0.339993 0.0199984 0 0 -0.0197484 -0.0277419 -0.0152116 -0.025303 0 0 0.845512 0 0 
202 1 202 0.33998 0.0599962 0 0 -0.0339555 -0.0263433 -0.0193127 -0.0220978 0 0 1.71726 0 0 
203 1 203 0.339971 0.0999948 0 0 -0.0372459 -0.0245494 -0.0197916 -0.0179466 0 0 2.61734 0 0 
204 1 204 0.339962 0.139991 0 0 -0.0432449 -0.0561134 -0.0318306 -0.0158968 0 0 2.80792 0 0 
205 1 205 0.339952 0.179984 0 0 -0.0328159 -0.0670511 -0.031996 -0.0205705 0 0 3.18294 0 0 
206 1 206 0.339942 0.219974 0 0 -0.0267237 -0.0914154 -0.0378514 -0.0181535 0 0 2.97637 0 0 
207 1 207 0.339933 0.25996 0 0 -0.0289258 -0.110552 -0.0446894 -0.0224682 0 0 2.58453 0 0 
208 1 208 0.339927 0.299945 0 0 -0.0250016 -0.100197 -0.0401096 -0.0127962 0 0 2.11793 0 0 
209 1 209 0.339925 0.339932 0 0 -0.040395 -0.0970486 -0.0440372 -0.0134853 0 0 1.54094 0 0 
210 1 210 0.339926 0.379922 0 0 -0.0605179 -0.0686621 -0.0413873 -0.0115998 0 0 1.0233 0 0 
211 1 211 0.339926 0.419917 0 0 -0.0879986 -0.0626262 -0.0482665 -0.0221511 0 0 0.602592 0 0 
212 1 212 0.339922 0.459916 0 0 -0.0987494 -0.0459218 -0.0463626 -0.0274801 0 0 0.0412149 0 0 
213 1 213 0.339912 0.499916 0 0 -0.10486 -0.055032 -0.0512477 -0.0458564 0 0 -0.195706 0 0 
214 1 214 0.339896 0.539914 0 0 -0.106251 -0.0604173 -0.0534169 -0.0423652 0 0 -0.773366 0 0 
215 1 215 0.339877 0.579911 0 0 -0.119866 -0.0865331 -0.0661578 -0.0453186 0 0 -1.0476 0 0 
216 1 216 0.339858 0.619907 0 0 -0.102249 -0.068385 -0.054689 -0.027131 0 0 -1.6852 0 0 
217 1 217 0.339847 0.659904 0 0 -0.0995913 -0.0594896 -0.0509826 -0.0200246 0 0 -2.31203 0 0 
218 1 218 0.339842 0.699903 0 0 -0.107051 -0.0444591 -0.0485548 -0.0120347 0 0 -2.64421 0 0 
219 1 219 0.339839 0.739906 0 0 -0.106607 -0.0151772 -0.0390225 -0.0155894 0 0 -2.60706 0 0 
220 1 220 0.339831 0.779913 0 0 -0.125765 -0.0168556 -0.0457018 -0.0316266 0 0 -1.62693 0 0 
221 1 221 0.339817 0.819921 0 0 -0.131532 -0.000819743 -0.0424065 -0.0321091 0 0 -1.43611 0 0 
222 1 222 0.339798 0.859931 0 0 -0.143204 -0.00527435 -0.0475849 -0.0465341 0 0 -0.0449205 0 0 
223 1 223 0.339774 0.899941 0 0 -0.160248 -0.00849651 -0.0540794 -0.0313939 0 0 0.179003 0 0 
224 1 224 0.339753 0.939954 0 0 -0.173656 0.0093175 -0.0526785 -0.0322969 0 0 1.5546 0 0 
225 1 225 0.339735 0.979969 0 0 -0.203642 -0.00887251 -0.0681228 -0.0100313 0 0 1.78583 0 0 
226 1 226 0.379994 0.0199986 0 0 -0.026026 -0.0273854 -0.0171067 -0.0312671 0 0 0.893668 0 0 
227 1 227 0.379981 0.0599967 0 0 -0.0408918 -0.0273492 -0.0218565 -0.0252375 0 0 1.70531 0 0 
228 1 228 0.37997 0.0999954 0 0 -0.0342671 -0.0248338 -0.0189281 -0.0159794 0 0 2.29107 0 0 
229 1 229 0.379961 0.139992 0 0 -0.0329512 -0.0503056 -0.0266697 -0.0148168 0 0 2.44887 0 0 
230 1 230 0.379954 0.179985 0 0 -0.0247008 -0.0685271 -0.0298689 -0.0161767 0 0 2.8877 0 0 
231 1 231 0.379948 0.219973 0 0 -0.011881 -0.088193 -0.032064 -0.0151307 0 0 2.93312 0 0 
232 1 232 0.37994 0.259958 0 0 -0.00978272 -0.11113 -0.0387428 -0.0221368 0 0 2.84553 0 0 
233 1 233 0.379934 0.299941 0 0 -0.00868232 -0.102782 -0.0357121 -0.0122332 0 0 2.4529 0 0 
234 1 234 0.37993 0.339926 0 0 -0.0325726 -0.104599 -0.0439552 -0.0205894 0 0 2.18593 0 0 
235 1 235 0.379925 0.379915 0 0 -0.0549232 -0.0766183 -0.0421467 -0.017967 0 0 1.7638 0 0 
236 1 236 0.379921 0.419909 0 0 -0.0830481 -0.0656696 -0.0476545 -0.0261493 0 0 1.53038 0 0 
237 1 237 0.379916 0.459907 0 0 -0.107559 -0.0478042 -0.0497859 -0.0292762 0 0 1.31085 0 0 
238 1 238 0.379908 0.499907 0 0 -0.139639 -0.0689743 -0.0668663 -0.0396603 0 0 1.2267 0 0 
239 1 239 0.379899 0.539906 0 0 -0.143127 -0.0673195 -0.0674528 -0.0371245 0 0 1.05041 0 0 
240 1 240 0.379891 0.579905 0 0 -0.156912 -0.0884041 -0.0786402 -0.0417491 0 0 0.988683 0 0 
241 1 241 0.379884 0.619903 0 0 -0.183133 -0.103006 -0.0917432 -0.0242828 0 0 0.569641 0 0 
242 1 242 0.379877 0.659902 0 0 -0.200394 -0.0912729 -0.0935149 -0.0243408 0 0 0.634401 0 0 
243 1 243 0.379866 0.699903 0 0 -0.223109 -0.0943051 -0.101777 -0.0159169 0 0 0.467631 0 0 
244 1 244 0.379852 0.739908 0 0 -0.217753 -0.0545494 -0.0872982 -0.0150547 0 0 -0.0160832 0 0 
245 1 245 0.379834 0.779916 0 0 -0.211634 -0.0478145 -0.0831748 -0.0298521 0 0 0.495997 0 0 
246 1 246 0.37981 0.819926 0 0 -0.196227 -0.0215686 -0.0698118 -0.0261519 0 0 -0.0222273 0 0 
247 1 247 0.379783 0.859938 0 0 -0.18957 -0.0125121 -0.0647797 -0.0441332 0 0 0.763751 0 0 
248 1 248 0.379754 0.899951 0 0 -0.190441 -0.0114469 -0.0647149 -0.029841 0 0 0.632188 0 0 
249 1 249 0.379727 0.939964 0 0 -0.189694 0.00725016 -0.058489 -0.0319949 0 0 1.6495 0 0 
250 1 250 0.379705 0.979979 0 0 -0.20539 -0.0156429 -0.0708571 -0.00711666 0 0 1.55723 0 0 
251 1 251 0.41999 0.019999 0 0 -0.0113939 -0.0171691 -0.00914284 -0.0375324 0 0 0.620047 0 0 
252 1 252 0.419973 0.0599972 0 0 -0.018691 -0.0199144 -0.0123574 -0.0289022 0 0 1.19412 0 0 
253 1 253 0.419964 0.0999952 0 0 -0.0272966 -0.0282669 -0.0177939 -0.0175187 0 0 1.76589 0 0 
254 1 254 0.419959 0.139991 0 0 -0.0326185 -0.0503942 -0.0265927 -0.015259 0 0 1.97956 0 0 
255 1 255 0.419954 0.179983 0 0 -0.0279945 -0.0749604 -0.0329883 -0.0140521 0 0 2.23592 0 0 
256 1 256 0.41995 0.219972 0 0 -0.0185176 -0.0921956 -0.0354763 -0.0119347 0 0 2.37342 0 0 
257 1 257 0.419945 0.259957 0 0 -0.0153182 -0.112278 -0.0408882 -0.0216288 0 0 2.67153 0 0 
258 1 258 0.419938 0.29994 0 0 -0.0124314 -0.111657 -0.0397634 -0.0137691 0 0 2.35291 0 0 
259 1 259 0.419931 0.339924 0 0 -0.0206642 -0.102769 -0.0395536 -0.0284024 0 0 2.22183 0 0 
260 1 260 0.419921 0.379911 0 0 -0.0338992 -0.0757211 -0.0351218 -0.0246618 0 0 1.48402 0 0 
261 1 261 0.41991 0.419904 0 0 -0.0593178 -0.0611865 -0.0386111 -0.0334359 0 0 0.888981 0 0 
262 1 262 0.419897 0.459901 0 0 -0.0786496 -0.0384263 -0.0375109 -0.0381748 0 0 0.28174 0 0 
263 1 263 0.419882 0.499902 0 0 -0.0973782 -0.0456172 -0.0458228 -0.0436175 0 0 -0.290203 0 0 
264 1 264 0.419865 0.539902 0 0 -0.102907 -0.043612 -0.0469507 -0.0404981 0 0 -0.62519 0 0 
265 1 265 0.419845 0.579902 0 0 -0.107549 -0.0541399 -0.0518161 -0.0464904 0 0 -0.985794 0 0 
266 1 266 0.419824 0.619901 0 0 -0.102293 -0.051461 -0.0492776 -0.0328195 0 0 -1.81281 0 0 
267 1 267 0.419809 0.659902 0 0 -0.0953442 -0.031231 -0.0405621 -0.0261785 0 0 -2.54764 0 0 
268 1 268 0.419799 0.699905 0 0 -0.0982144 -0.0195161 -0.0377254 -0.0197238 0 0 -2.66332 0 0 
269 1 269 0.419791 0.739912 0 0 -0.108889 0.00754885 -0.0324686 -0.0164187 0 0 -2.48779 0 0 
270 1 270 0.419781 0.779922 0 0 -0.135258 0.00147509 -0.0428725 -0.0266372 0 0 -1.48015 0 0 
271 1 271 0.419765 0.819934 0 0 -0.142558 0.0167311 -0.0403214 -0.0253753 0 0 -1.18524 0 0 
272 1 272 0.419744 0.859947 0 0 -0.162834 0.00934151 -0.0491997 -0.0399361 0 0 -0.00317981 0 0 
273 1 273 0.419718 0.899961 0 0 -0.175104 0.00631541 -0.0541036 -0.0300592 0 0 -0.112948 0 0 
274 1 274 0.419693 0.939976 0 0 -0.174093 0.0148156 -0.0510628 -0.0338789 0 0 0.672878 0 0 
275 1 275 0.419672 0.979991 0 0 -0.185234 -0.00703493 -0.0616323 -0.0077749 0 0 0.402169 0 0 
276 1 276 0.459992 0.019999 0 0 -0.0124271 -0.0172445 -0.00950008 -0.0403618 0 0 0.576325 0 0 
277 1 277 0.459976 0.0599966 0 0 -0.0183336 -0.0251913 -0.013934 -0.029816 0 0 0.979543 0 0 
278 1 278 0.459965 0.0999932 0 0 -0.0231385 -0.0388903 -0.0198668 -0.020544 0 0 1.24281 0 0 
279 1 279 0.459959 0.139988 0 0 -0.0270421 -0.0519617 -0.0253093 -0.0160425 0 0 1.35694 0 0 
280 1 280 0.459956 0.17998 0 0 -0.0336436 -0.0786304 -0.0359764 -0.0140626 0 0 1.5654 0 0 
281 1 281 0.459955 0.219968 0 0 -0.0324046 -0.0970818 -0.0414941 -0.0101404 0 0 1.84102 0 0 
282 1 282 0.459952 0.259953 0 0 -0.0233543 -0.107979 -0.0420862 -0.0197625 0 0 2.42888 0 0 
283 1 283 0.459946 0.299937 0 0 -0.0210682 -0.113064 -0.0429827 -0.0139994 0 0 2.32421 0 0 
284 1 284 0.459937 0.339922 0 0 -0.0291856 -0.10334 -0.0424677 -0.0298275 0 0 2.54044 0 0 
285 1 285 0.459924 0.379909 0 0 -0.0451696 -0.0852969 -0.0418048 -0.0273688 0 0 2.02159 0 0 
286 1 286 0.459909 0.419901 0 0 -0.0736341 -0.0742081 -0.0473751 -0.0361786 0 0 1.61369 0 0 
287 1 287 0.459894 0.459897 0 0 -0.0986888 -0.0565821 -0.04976 -0.0365322 0 0 1.28202 0 0 
288 1 288 0.45988 0.499896 0 0 -0.124028 -0.0566131 -0.0578988 -0.0367376 0 0 1.06092 0 0 
289 1 289 0.459868 0.539897 0 0 -0.144483 -0.0589507 -0.0652044 -0.0331846 0 0 0.907842 0 0 
290 1 290 0.459858 0.579898 0 0 -0.16335 -0.0754267 -0.0765399 -0.0341572 0 0 0.612053 0 0 
291 1 291 0.459849 0.619899 0 0 -0.184942 -0.0797422 -0.0848554 -0.0310175 0 0 0.698345 0 0 
292 1 292 0.459837 0.659902 0 0 -0.217544 -0.0766653 -0.094329 -0.0305285 0 0 0.664523 0 0 
293 1 293 0.459821 0.699907 0 0 -0.24775 -0.0803011 -0.10519 -0.025864 0 0 0.619235 0 0 
294 1 294 0.459801 0.739916 0 0 -0.245196 -0.0434776 -0.0925495 -0.0267201 0 0 0.546537 0 0 
295 1 295 0.459779 0.779928 0 0 -0.245112 -0.0392216 -0.0911614 -0.0308156 0 0 0.816001 0 0 
296 1 296 0.459753 0.819941 0 0 -0.229195 -0.0140522 -0.0779777 -0.031102 0 0 0.434953 0 0 
297 1 297 0.459725 0.859957 0 0 -0.215762 -0.0044469 -0.0705948 -0.0471671 0 0 0.940615 0 0 
298 1 298 0.459694 0.899972 0 0 -0.20737 -0.00792786 -0.0690194 -0.0344469 0 0 0.305297 0 0 
299 1 299 0.459667 0.939986 0 0 -0.194551 0.00352762 -0.0612418 -0.0392608 0 0 0.549547 0 0 
300 1 300 0.459644 0.980001 0 0 -0.195771 -0.0111231 -0.0663219 -0.013587 0 0 0.0371381 0 0 
301 1 301 0.499989 0.019999 0 0 -0.000685231 -0.0139552 -0.00468475 -0.0404299 0 0 0.216409 0 0 
302 1 302 0.499972 0.0599959 0 0 -0.00245054 -0.0255501 -0.00896067 -0.0317982 0 0 0.341906 0 0 
303 1 303 0.499962 0.0999905 0 0 -0.0273256 -0.0568416 -0.0269641 -0.0257392 0 0 0.644639 0 0 
304 1 304 0.499957 0.139983 0 0 -0.037058 -0.0636095 -0.0322541 -0.0172795 0 0 0.71868 0 0 
305 1 305 0.499955 0.179974 0 0 -0.0414879 -0.0852247 -0.0406058 -0.015404 0 0 0.722273 0 0 
306 1 306 0.499955 0.219963 0 0 -0.0402218 -0.0952038 -0.0433986 -0.0116089 0 0 0.982938 0 0 
307 1 307 0.499953 0.25995 0 0 -0.0399832 -0.104992 -0.0464583 -0.0192131 0 0 1.73497 0 0 
308 1 308 0.499948 0.299936 0 0 -0.0379907 -0.105617 -0.0460183 -0.0166789 0 0 1.81721 0 0 
309 1 309 0.499937 0.339923 0 0 -0.0366095 -0.0943761 -0.0419706 -0.0323471 0 0 2.03103 0 0 
310 1 310 0.49992 0.379911 0 0 -0.0412963 -0.0847129 -0.0403725 -0.0305287 0 0 1.31924 0 0 
311 1 311 0.4999 0.419903 0 0 -0.0539391 -0.0649461 -0.0380892 -0.0428704 0 0 0.829469 0 0 
312 1 312 0.499877 0.459898 0 0 -0.0718731 -0.0521012 -0.0397261 -0.0383025 0 0 0.0445404 0 0 
313 1 313 0.499855 0.499897 0 0 -0.0827376 -0.0427368 -0.0402104 -0.0395979 0 0 -0.549388 0 0 
314 1 314 0.499834 0.539897 0 0 -0.0965079 -0.0360661 -0.0424823 -0.0402143 0 0 -0.774972 0 0 
315 1 315 0.499811 0.579899 0 0 -0.104342 -0.0381363 -0.0456553 -0.03482 0 0 -1.37724 0 0 
316 1 316 0.499788 0.619901 0 0 -0.101759 -0.0346348 -0.0437064 -0.0344424 0 0 -1.72708 0 0 
317 1 317 0.499766 0.659904 0 0 -0.0918454 -0.00712683 -0.0317096 -0.0305291 0 0 -2.46363 0 0 
318 1 318 0.49975 0.699911 0 0 -0.101228 -0.00165616 -0.0329645 -0.0257799 0 0 -2.48654 0 0 
319 1 319 0.499736 0.73992 0 0 -0.120917 0.0188973 -0.0326856 -0.0267975 0 0 -2.12267 0 0 
320 1 320 0.49972 0.779933 0 0 -0.149395 0.0162886 -0.0426562 -0.0301757 0 0 -1.38092 0 0 
321 1 321 0.499702 0.819948 0 0 -0.171429 0.0158625 -0.0498542 -0.0332231 0 0 -0.982401 0 0 
322 1 322 0.49968 0.859964 0 0 -0.186876 0.0142487 -0.0553311 -0.045985 0 0 -0.139265 0 0 
323 1 323 0.499655 0.89998 0 0 -0.191923 0.00123579 -0.0611223 -0.0361265 0 0 -0.423614 0 0 