ITEM: TIMESTEP
0
ITEM: NUMBER OF ATOMS
7127
ITEM: BOX BOUNDS sm sm sm
0 4
0 2
0 0
ITEM: ATOMS id type tag x y z vx 
0 1 0 0 0 0 0 
1 1 1 0 0.04 0 0 
2 1 2 0 0.08 0 0 
3 1 3 0 0.12 0 0 
4 1 4 0 0.16 0 0 
5 1 5 0 0.2 0 0 
6 1 6 0 0.24 0 0 
7 1 7 0 0.28 0 0 
8 1 8 0 0.32 0 0 
9 1 9 0 0.36 0 0 
10 1 10 0 0.4 0 0 
11 1 11 0 0.44 0 0 
12 1 12 0 0.48 0 0 
13 1 13 0 0.52 0 0 
14 1 14 0 0.56 0 0 
15 1 15 0 0.6 0 0 
16 1 16 0 0.64 0 0 
17 1 17 0 0.68 0 0 
18 1 18 0 0.72 0 0 
19 1 19 0 0.76 0 0 
20 1 20 0 0.8 0 0 
21 1 21 0 0.84 0 0 
22 1 22 0 0.88 0 0 
23 1 23 0 0.92 0 0 
24 1 24 0 0.96 0 0 
25 1 25 0 1 0 0 
26 1 26 0.04 0 0 0 
27 1 27 0.0399901 0.0399907 0 -0.241292 
28 1 28 0.0399861 0.0799863 0 -0.191851 
29 1 29 0.039984 0.119985 0 -0.0563662 
30 1 30 0.0399831 0.159983 0 0.0250137 
31 1 31 0.0399832 0.199984 0 -0.0562603 
32 1 32 0.0399821 0.239982 0 -0.178027 
33 1 33 0.0399816 0.279981 0 -0.258512 
34 1 34 0.0399805 0.31998 0 -0.30791 
35 1 35 0.0399796 0.359978 0 -0.354285 
36 1 36 0.0399784 0.399976 0 -0.397073 
37 1 37 0.0399778 0.439975 0 -0.433721 
38 1 38 0.039977 0.479973 0 -0.451018 
39 1 39 0.0399767 0.519974 0 -0.478856 
40 1 40 0.0399757 0.559976 0 -0.456277 
41 1 41 0.0399746 0.59998 0 -0.429782 
42 1 42 0.0399737 0.639986 0 -0.368248 
43 1 43 0.0399728 0.679993 0 -0.284792 
44 1 44 0.0399727 0.720001 0 -0.166674 
45 1 45 0.0399698 0.760009 0 -0.186596 
46 1 46 0.0399718 0.800015 0 -0.262359 
47 1 47 0.0399696 0.840021 0 -0.0225978 
48 1 48 0.0399661 0.880029 0 -0.101118 
49 1 49 0.0399651 0.920034 0 -0.0427172 
50 1 50 0.0399579 0.960047 0 -0.0773839 
51 1 51 0.0399129 1.00009 0 -0.404369 
52 1 52 0.08 0 0 0 
53 1 53 0.0799835 0.0399879 0 -0.26633 
54 1 54 0.079974 0.0799785 0 -0.1696 
55 1 55 0.0799697 0.119975 0 -0.0550255 
56 1 56 0.0799672 0.159969 0 -0.0863421 
57 1 57 0.0799658 0.199968 0 -0.31619 
58 1 58 0.0799648 0.239964 0 -0.489136 
59 1 59 0.0799629 0.279961 0 -0.578388 
60 1 60 0.0799626 0.319958 0 -0.640632 
61 1 61 0.0799588 0.359955 0 -0.641906 
62 1 62 0.0799589 0.399951 0 -0.619375 
63 1 63 0.0799547 0.439952 0 -0.61579 
64 1 64 0.0799553 0.479949 0 -0.657139 
65 1 65 0.0799497 0.519953 0 -0.743699 
66 1 66 0.0799501 0.559956 0 -0.773801 
67 1 67 0.0799436 0.599965 0 -0.737597 
68 1 68 0.0799439 0.639976 0 -0.633875 
69 1 69 0.0799367 0.67999 0 -0.488108 
70 1 70 0.0799384 0.720002 0 -0.399665 
71 1 71 0.0799351 0.760017 0 -0.356964 
72 1 72 0.0799351 0.80003 0 -0.503787 
73 1 73 0.0799339 0.840045 0 -0.365297 
74 1 74 0.079927 0.88006 0 -0.268946 
75 1 75 0.0799257 0.920077 0 -0.103562 
76 1 76 0.0798976 0.960107 0 -0.289834 
77 1 77 0.0798694 1.00012 0 -0.792936 
78 1 78 0.12 0 0 0 
79 1 79 0.119979 0.0399856 0 -0.342384 
80 1 80 0.119965 0.0799744 0 -0.278199 
81 1 81 0.119957 0.119966 0 -0.173237 
82 1 82 0.119952 0.159958 0 -0.251637 
83 1 83 0.119949 0.199952 0 -0.50497 
84 1 84 0.119947 0.239947 0 -0.669702 
85 1 85 0.119945 0.279941 0 -0.756313 
86 1 86 0.119943 0.319937 0 -0.799788 
87 1 87 0.119939 0.359933 0 -0.744824 
88 1 88 0.119937 0.399931 0 -0.687356 
89 1 89 0.119933 0.43993 0 -0.655174 
90 1 90 0.11993 0.479931 0 -0.735359 
91 1 91 0.119924 0.519935 0 -0.872106 
92 1 92 0.119919 0.559945 0 -0.974406 
93 1 93 0.119911 0.599954 0 -0.940888 
94 1 94 0.119904 0.639971 0 -0.793367 
95 1 95 0.119901 0.679986 0 -0.58838 
96 1 96 0.119897 0.720007 0 -0.530004 
97 1 97 0.119898 0.760024 0 -0.523424 
98 1 98 0.119893 0.800046 0 -0.646533 
99 1 99 0.119891 0.840067 0 -0.671011 
100 1 100 0.119885 0.880089 0 -0.454446 
101 1 101 0.119873 0.920118 0 -0.207653 
102 1 102 0.119855 0.960138 0 -0.575993 
103 1 103 0.119831 1.00016 0 -1.11668 
104 1 104 0.16 0 0 0 
105 1 105 0.159974 0.0399836 0 -0.419042 
106 1 106 0.159957 0.0799689 0 -0.388194 
107 1 107 0.159946 0.119957 0 -0.24584 
108 1 108 0.159938 0.159946 0 -0.335902 
109 1 109 0.159933 0.199937 0 -0.600445 
110 1 110 0.15993 0.23993 0 -0.771438 
111 1 111 0.159926 0.279923 0 -0.819751 
112 1 112 0.159922 0.319918 0 -0.794336 
113 1 113 0.159917 0.359916 0 -0.690574 
114 1 114 0.159914 0.399914 0 -0.603026 
115 1 115 0.159908 0.439916 0 -0.564716 
116 1 116 0.159903 0.479919 0 -0.677276 
117 1 117 0.159894 0.519926 0 -0.868719 
118 1 118 0.159885 0.559936 0 -1.0429 
119 1 119 0.159875 0.59995 0 -1.07004 
120 1 120 0.159866 0.639966 0 -0.918718 
121 1 121 0.159856 0.679986 0 -0.689323 
122 1 122 0.159852 0.720006 0 -0.598433 
123 1 123 0.159849 0.760032 0 -0.622483 
124 1 124 0.159846 0.800054 0 -0.776727 
125 1 125 0.159841 0.840084 0 -0.838391 
126 1 126 0.159835 0.880111 0 -0.597174 
127 1 127 0.159826 0.920138 0 -0.44591 
128 1 128 0.159814 0.960165 0 -0.904525 
129 1 129 0.159801 1.00018 0 -1.36445 
130 1 130 0.2 0 0 0 
131 1 131 0.199972 0.0399816 0 -0.453066 
132 1 132 0.19995 0.0799644 0 -0.441085 
133 1 133 0.199937 0.119949 0 -0.253697 
134 1 134 0.199926 0.159935 0 -0.359119 
135 1 135 0.199917 0.199924 0 -0.625295 
136 1 136 0.199911 0.239914 0 -0.760987 
137 1 137 0.199906 0.279908 0 -0.76493 
138 1 138 0.199901 0.319903 0 -0.695262 
139 1 139 0.199894 0.359902 0 -0.571227 
140 1 140 0.19989 0.399902 0 -0.459143 
141 1 141 0.199882 0.439906 0 -0.434202 
142 1 142 0.199875 0.479911 0 -0.562367 
143 1 143 0.199863 0.51992 0 -0.773484 
144 1 144 0.19985 0.559931 0 -0.984228 
145 1 145 0.199833 0.599947 0 -1.06171 
146 1 146 0.199822 0.639965 0 -0.959591 
147 1 147 0.199813 0.679985 0 -0.757694 
148 1 148 0.199807 0.720009 0 -0.69538 
149 1 149 0.199802 0.760033 0 -0.717022 
150 1 150 0.199796 0.800063 0 -0.924772 
151 1 151 0.199792 0.84009 0 -1.08561 
152 1 152 0.199787 0.880121 0 -0.819344 
153 1 153 0.199778 0.920149 0 -0.727596 
154 1 154 0.199775 0.960171 0 -1.15688 
155 1 155 0.199775 1.00019 0 -1.47033 
156 1 156 0.24 0 0 0 
157 1 157 0.23997 0.03998 0 -0.391778 
158 1 158 0.239946 0.0799605 0 -0.374592 
159 1 159 0.239929 0.119943 0 -0.209054 
160 1 160 0.239913 0.159927 0 -0.347013 
161 1 161 0.239901 0.199914 0 -0.545487 
162 1 162 0.239893 0.239904 0 -0.625114 
163 1 163 0.239884 0.279897 0 -0.639532 
164 1 164 0.239877 0.319893 0 -0.559206 
165 1 165 0.239869 0.359892 0 -0.42955 
166 1 166 0.239863 0.399894 0 -0.325604 
167 1 167 0.239854 0.439898 0 -0.304279 
168 1 168 0.239844 0.479906 0 -0.441904 
169 1 169 0.239827 0.519916 0 -0.684066 
170 1 170 0.239812 0.55993 0 -0.942648 
171 1 171 0.239796 0.599945 0 -1.05306 
172 1 172 0.23978 0.639963 0 -0.974773 
173 1 173 0.239765 0.679984 0 -0.808155 
174 1 174 0.239755 0.720005 0 -0.818289 
175 1 175 0.23975 0.760031 0 -0.898586 
176 1 176 0.239744 0.800059 0 -1.08565 
177 1 177 0.239737 0.840089 0 -1.31362 
178 1 178 0.239736 0.880117 0 -1.12358 
179 1 179 0.239734 0.920145 0 -1.04709 
180 1 180 0.239739 0.960167 0 -1.32614 
181 1 181 0.239744 1.00018 0 -1.45926 
182 1 182 0.28 0 0 0 
183 1 183 0.279969 0.0399782 0 -0.237767 
184 1 184 0.279942 0.0799574 0 -0.223161 
185 1 185 0.279921 0.119938 0 -0.123539 
186 1 186 0.279902 0.159921 0 -0.279248 
187 1 187 0.279885 0.199907 0 -0.454274 
188 1 188 0.279873 0.239895 0 -0.564693 
189 1 189 0.279861 0.279889 0 -0.569675 
190 1 190 0.279852 0.319884 0 -0.442983 
191 1 191 0.279842 0.359884 0 -0.316555 
192 1 192 0.279834 0.399887 0 -0.26578 
193 1 193 0.279823 0.439892 0 -0.267518 
194 1 194 0.27981 0.479901 0 -0.374278 
195 1 195 0.279792 0.519912 0 -0.594352 
196 1 196 0.279773 0.559926 0 -0.857823 
197 1 197 0.27975 0.599943 0 -1.0482 
198 1 198 0.279734 0.63996 0 -1.07625 
199 1 199 0.279722 0.679982 0 -0.960539 
200 1 200 0.279712 0.720002 0 -1.00006 
201 1 201 0.279703 0.760026 0 -1.12076 
202 1 202 0.279695 0.800051 0 -1.26147 
203 1 203 0.279691 0.840078 0 -1.47567 
204 1 204 0.27969 0.880107 0 -1.38221 
205 1 205 0.27969 0.92013 0 -1.37515 
206 1 206 0.2797 0.960153 0 -1.5417 
207 1 207 0.279715 1.00017 0 -1.53729 
208 1 208 0.32 0 0 0 
209 1 209 0.319968 0.0399772 0 -0.0477383 
210 1 210 0.31994 0.0799545 0 -0.0811479 
211 1 211 0.319913 0.119933 0 -0.111363 
212 1 212 0.31989 0.159915 0 -0.32168 
213 1 213 0.319869 0.1999 0 -0.477231 
214 1 214 0.319853 0.239888 0 -0.551931 
215 1 215 0.319836 0.279882 0 -0.499966 
216 1 216 0.319825 0.319878 0 -0.389812 
217 1 217 0.319813 0.359878 0 -0.313926 
218 1 218 0.319803 0.399881 0 -0.291599 
219 1 219 0.31979 0.439887 0 -0.320359 
220 1 220 0.319774 0.479896 0 -0.424703 
221 1 221 0.319752 0.519907 0 -0.634562 
222 1 222 0.319731 0.559921 0 -0.877803 
223 1 223 0.319711 0.599936 0 -1.09263 
224 1 224 0.319692 0.639953 0 -1.22426 
225 1 225 0.319674 0.679971 0 -1.17361 
226 1 226 0.319661 0.719991 0 -1.18283 
227 1 227 0.319653 0.760012 0 -1.29894 
228 1 228 0.319645 0.800037 0 -1.41726 
229 1 229 0.319637 0.840062 0 -1.66407 
230 1 230 0.319642 0.880086 0 -1.67449 
231 1 231 0.319647 0.92011 0 -1.68389 
232 1 232 0.319662 0.960131 0 -1.75018 
233 1 233 0.319679 1.00015 0 -1.65327 
234 1 234 0.36 0 0 0 
235 1 235 0.359969 0.0399755 0 0.20061 
236 1 236 0.359937 0.0799512 0 0.0987755 
237 1 237 0.359906 0.119929 0 -0.155739 
238 1 238 0.359879 0.15991 0 -0.48777 
239 1 239 0.359853 0.199894 0 -0.634067 
240 1 240 0.359832 0.239882 0 -0.696196 
241 1 241 0.359813 0.279876 0 -0.626037 
242 1 242 0.359798 0.319872 0 -0.510098 
243 1 243 0.359783 0.359871 0 -0.426565 
244 1 244 0.35977 0.399874 0 -0.386561 
245 1 245 0.359753 0.439879 0 -0.419821 
246 1 246 0.359734 0.479887 0 -0.496488 
247 1 247 0.359712 0.519898 0 -0.649021 
248 1 248 0.359689 0.55991 0 -0.869339 
249 1 249 0.359663 0.599925 0 -1.09411 
250 1 250 0.359645 0.639941 0 -1.25975 
251 1 251 0.359633 0.67996 0 -1.30648 
252 1 252 0.359622 0.719977 0 -1.34741 
253 1 253 0.359608 0.759999 0 -1.43875 
254 1 254 0.3596 0.80002 0 -1.4892 
255 1 255 0.359593 0.840042 0 -1.73054 
256 1 256 0.359597 0.880065 0 -1.88431 
257 1 257 0.359602 0.920085 0 -1.97919 
258 1 258 0.35962 0.960106 0 -2.01897 
259 1 259 0.359644 1.00012 0 -1.88205 
260 1 260 0.4 0 0 0 
261 1 261 0.399967 0.0399739 0 0.393945 
262 1 262 0.399934 0.0799489 0 0.201707 
263 1 263 0.399899 0.119926 0 -0.274463 
264 1 264 0.399868 0.159906 0 -0.719858 
265 1 265 0.399837 0.199889 0 -0.903579 
266 1 266 0.399812 0.239877 0 -0.993329 
267 1 267 0.399788 0.279869 0 -0.893477 
268 1 268 0.39977 0.319864 0 -0.706221 
269 1 269 0.399752 0.359863 0 -0.571677 
270 1 270 0.399735 0.399864 0 -0.516577 
271 1 271 0.399715 0.439869 0 -0.523234 
272 1 272 0.399692 0.479875 0 -0.54041 
273 1 273 0.399666 0.519885 0 -0.602904 
274 1 274 0.399641 0.559896 0 -0.800598 
275 1 275 0.399621 0.599909 0 -1.07568 
276 1 276 0.399603 0.639923 0 -1.25793 
277 1 277 0.399583 0.67994 0 -1.35626 
278 1 278 0.39957 0.719957 0 -1.40364 
279 1 279 0.399559 0.759976 0 -1.45711 
280 1 280 0.39955 0.799997 0 -1.46528 
281 1 281 0.39954 0.840017 0 -1.7214 
282 1 282 0.399548 0.880037 0 -2.02892 
283 1 283 0.399558 0.920057 0 -2.21394 
284 1 284 0.399578 0.960075 0 -2.23467 
285 1 285 0.399603 1.0001 0 -2.07761 
286 1 286 0.44 0 0 0 
287 1 287 0.439966 0.0399724 0 0.493434 
288 1 288 0.43993 0.0799471 0 0.222476 
289 1 289 0.439891 0.119924 0 -0.419093 
290 1 290 0.439857 0.159903 0 -0.935591 
291 1 291 0.439822 0.199885 0 -1.14883 
292 1 292 0.439793 0.239872 0 -1.20798 
293 1 293 0.439766 0.279862 0 -1.05541 
294 1 294 0.439744 0.319855 0 -0.841112 
295 1 295 0.439721 0.359851 0 -0.674946 
296 1 296 0.4397 0.399851 0 -0.610022 
297 1 297 0.439675 0.439854 0 -0.572186 
298 1 298 0.439648 0.47986 0 -0.552048 
299 1 299 0.439623 0.519868 0 -0.530395 
300 1 300 0.439596 0.559877 0 -0.60937 
301 1 301 0.43957 0.59989 0 -0.863691 
302 1 302 0.439553 0.639904 0 -1.05398 
303 1 303 0.439542 0.67992 0 -1.17837 
304 1 304 0.439531 0.719938 0 -1.19351 
305 1 305 0.439514 0.759956 0 -1.24978 
306 1 306 0.439506 0.799973 0 -1.30619 
307 1 307 0.439499 0.839991 0 -1.58079 
308 1 308 0.439503 0.880008 0 -2.03665 
309 1 309 0.439511 0.920026 0 -2.35399 
310 1 310 0.439533 0.960044 0 -2.44965 
311 1 311 0.439562 1.00006 0 -2.35026 
312 1 312 0.48 0 0 0 
313 1 313 0.479961 0.039971 0 0.412 
314 1 314 0.479924 0.0799446 0 0.123912 
315 1 315 0.479883 0.119921 0 -0.511671 
316 1 316 0.479846 0.159899 0 -0.981187 
317 1 317 0.479809 0.199881 0 -1.19971 
318 1 318 0.479777 0.239866 0 -1.24933 
319 1 319 0.479745 0.279854 0 -1.07082 
320 1 320 0.47972 0.319846 0 -0.856886 
321 1 321 0.479693 0.359841 0 -0.639504 
322 1 322 0.479664 0.39984 0 -0.527896 
323 1 323 0.479635 0.439841 0 -0.442278 
324 1 324 0.479605 0.479846 0 -0.380408 
325 1 325 0.479574 0.519852 0 -0.337984 
326 1 326 0.479548 0.559859 0 -0.363943 
327 1 327 0.479527 0.599868 0 -0.543094 
328 1 328 0.47951 0.639879 0 -0.700353 
329 1 329 0.479489 0.679893 0 -0.90471 
330 1 330 0.479477 0.719909 0 -0.949361 
331 1 331 0.479464 0.759927 0 -1.00751 
332 1 332 0.479456 0.799944 0 -1.09711 
333 1 333 0.479447 0.83996 0 -1.34489 
334 1 334 0.479453 0.879975 0 -1.92679 
335 1 335 0.479466 0.919992 0 -2.40718 
336 1 336 0.479486 0.960009 0 -2.58856 
337 1 337 0.479513 1.00003 0 -2.55212 
338 1 338 0.52 0 0 0 
339 1 339 0.519958 0.0399698 0 0.192695 
340 1 340 0.519917 0.0799427 0 -0.039997 
341 1 341 0.519875 0.119919 0 -0.509895 
342 1 342 0.519836 0.159896 0 -0.826062 
343 1 343 0.519795 0.199876 0 -0.969839 
344 1 344 0.519761 0.23986 0 -0.982023 
345 1 345 0.519727 0.279847 0 -0.808754 
346 1 346 0.519697 0.319838 0 -0.615317 
347 1 347 0.519665 0.359831 0 -0.390241 
348 1 348 0.519633 0.399829 0 -0.303862 
349 1 349 0.519598 0.439829 0 -0.256617 
350 1 350 0.519564 0.479832 0 -0.188033 
351 1 351 0.519534 0.519836 0 -0.115009 
352 1 352 0.519505 0.55984 0 -0.129714 
353 1 353 0.519478 0.599846 0 -0.269478 
354 1 354 0.51946 0.639856 0 -0.362852 
355 1 355 0.519448 0.679869 0 -0.574086 
356 1 356 0.519439 0.719883 0 -0.615738 
357 1 357 0.51942 0.759899 0 -0.673687 
358 1 358 0.519412 0.799913 0 -0.832552 
359 1 359 0.519406 0.839928 0 -1.11081 
360 1 360 0.519407 0.879941 0 -1.79436 
361 1 361 0.519415 0.919958 0 -2.37075 
362 1 362 0.519436 0.959977 0 -2.61832 
363 1 363 0.519465 0.999999 0 -2.65664 
364 1 364 0.56 0 0 0 
365 1 365 0.559952 0.0399689 0 -0.0953951 
366 1 366 0.559909 0.0799409 0 -0.230926 
367 1 367 0.559866 0.119916 0 -0.418557 
368 1 368 0.559825 0.159893 0 -0.502173 
369 1 369 0.559782 0.199872 0 -0.540185 
370 1 370 0.559746 0.239856 0 -0.506952 
371 1 371 0.559709 0.279842 0 -0.360114 
372 1 372 0.559676 0.319832 0 -0.225953 
373 1 373 0.559639 0.359825 0 -0.0621777 
374 1 374 0.5596 0.399822 0 -0.0498861 
375 1 375 0.559562 0.439821 0 -0.0425972 
376 1 376 0.559526 0.479821 0 -0.00751136 
377 1 377 0.559491 0.519822 0 0.0473732 
378 1 378 0.559462 0.559823 0 0.084395 
379 1 379 0.55944 0.599825 0 -0.00424719 
380 1 380 0.55942 0.63983 0 -0.0842819 
381 1 381 0.559395 0.679838 0 -0.301163 
382 1 382 0.559381 0.719851 0 -0.371562 
383 1 383 0.559367 0.759865 0 -0.472274 
384 1 384 0.559359 0.799879 0 -0.701259 
385 1 385 0.55935 0.839893 0 -0.968925 
386 1 386 0.559353 0.879907 0 -1.64646 
387 1 387 0.559365 0.919924 0 -2.27232 
388 1 388 0.559383 0.959943 0 -2.6218 
389 1 389 0.559407 0.999968 0 -2.7563 
390 1 390 0.6 0 0 0 
391 1 391 0.599948 0.0399682 0 -0.345828 
392 1 392 0.599902 0.0799397 0 -0.375821 
393 1 393 0.599857 0.119914 0 -0.26543 
394 1 394 0.599814 0.159891 0 -0.111028 
395 1 395 0.599769 0.19987 0 -0.0475893 
396 1 396 0.599731 0.239853 0 0.00157092 
397 1 397 0.599691 0.279838 0 0.0776254 
398 1 398 0.599654 0.319828 0 0.107488 
399 1 399 0.599613 0.35982 0 0.207832 
400 1 400 0.599572 0.399815 0 0.216979 
401 1 401 0.599529 0.439812 0 0.212987 
402 1 402 0.59949 0.47981 0 0.187004 
403 1 403 0.599458 0.519808 0 0.164031 
404 1 404 0.599428 0.559806 0 0.207184 
405 1 405 0.599395 0.599806 0 0.155301 
406 1 406 0.599372 0.639809 0 0.0670973 
407 1 407 0.599356 0.679816 0 -0.141493 
408 1 408 0.599342 0.719825 0 -0.267398 
409 1 409 0.599321 0.759837 0 -0.417734 
410 1 410 0.599312 0.799849 0 -0.65281 
411 1 411 0.599306 0.839862 0 -0.880162 
412 1 412 0.599304 0.879876 0 -1.48257 
413 1 413 0.599309 0.919894 0 -2.05653 
414 1 414 0.599327 0.959914 0 -2.43487 
415 1 415 0.599352 0.99994 0 -2.63035 
416 1 416 0.64 0 0 0 
417 1 417 0.639943 0.0399681 0 -0.426259 
418 1 418 0.639895 0.0799393 0 -0.345599 
419 1 419 0.639848 0.119913 0 -0.0394291 
420 1 420 0.639801 0.15989 0 0.224508 
421 1 421 0.639755 0.199869 0 0.336414 
422 1 422 0.639714 0.239852 0 0.374494 
423 1 423 0.639672 0.279837 0 0.3503 
424 1 424 0.639632 0.319826 0 0.297889 
425 1 425 0.639588 0.359817 0 0.341592 
426 1 426 0.639543 0.399811 0 0.32494 
427 1 427 0.639499 0.439805 0 0.301381 
428 1 428 0.63946 0.4798 0 0.275662 
429 1 429 0.639421 0.519796 0 0.215853 
430 1 430 0.639389 0.559792 0 0.219296 
431 1 431 0.639362 0.599789 0 0.196873 
432 1 432 0.639336 0.639788 0 0.137817 
433 1 433 0.639302 0.67979 0 -0.0500715 
434 1 434 0.639281 0.719798 0 -0.252736 
435 1 435 0.639265 0.759808 0 -0.424933 
436 1 436 0.639254 0.79982 0 -0.62101 
437 1 437 0.639244 0.839833 0 -0.816805 
438 1 438 0.639245 0.879847 0 -1.30784 
439 1 439 0.639253 0.919866 0 -1.77897 
440 1 440 0.639266 0.959888 0 -2.16493 
441 1 441 0.639287 0.999916 0 -2.40677 
442 1 442 0.68 0 0 0 
443 1 443 0.679941 0.0399678 0 -0.339763 
444 1 444 0.679888 0.0799388 0 -0.211023 
445 1 445 0.679838 0.119912 0 0.157349 
446 1 446 0.67979 0.15989 0 0.449144 
447 1 447 0.679742 0.199869 0 0.560298 
448 1 448 0.679697 0.239851 0 0.540541 
449 1 449 0.679653 0.279835 0 0.405347 
450 1 450 0.679609 0.319823 0 0.281862 
451 1 451 0.679562 0.359812 0 0.275537 
452 1 452 0.679516 0.399803 0 0.274343 
453 1 453 0.679469 0.439795 0 0.281675 
454 1 454 0.679428 0.479789 0 0.302019 
455 1 455 0.679392 0.519782 0 0.264393 
456 1 456 0.679358 0.559777 0 0.295853 
457 1 457 0.679318 0.599773 0 0.299671 
458 1 458 0.679288 0.639774 0 0.189374 
459 1 459 0.679264 0.679777 0 -0.0122376 
460 1 460 0.679242 0.719782 0 -0.28766 
461 1 461 0.679217 0.75979 0 -0.472272 
462 1 462 0.679205 0.799799 0 -0.612908 
463 1 463 0.679198 0.839811 0 -0.743533 
464 1 464 0.679192 0.879825 0 -1.03248 
465 1 465 0.679192 0.919844 0 -1.33384 
466 1 466 0.679205 0.959867 0 -1.73402 
467 1 467 0.679227 0.999896 0 -2.03576 
468 1 468 0.72 0 0 0 
469 1 469 0.719938 0.0399674 0 -0.0615296 
470 1 470 0.719882 0.0799378 0 0.0998723 
471 1 471 0.719829 0.11991 0 0.404446 
472 1 472 0.719777 0.159888 0 0.627647 
473 1 473 0.719727 0.199867 0 0.687267 
474 1 474 0.71968 0.239849 0 0.58747 
475 1 475 0.719632 0.279833 0 0.357962 
476 1 476 0.719585 0.319819 0 0.159935 
477 1 477 0.719536 0.359807 0 0.115038 
478 1 478 0.719488 0.399797 0 0.222662 
479 1 479 0.71944 0.439787 0 0.321299 
480 1 480 0.7194 0.479778 0 0.373621 
481 1 481 0.719356 0.519769 0 0.307837 
482 1 482 0.71932 0.559764 0 0.300955 
483 1 483 0.719286 0.599759 0 0.318293 
484 1 484 0.719251 0.639757 0 0.204442 
485 1 485 0.719208 0.679758 0 0.0431875 
486 1 486 0.719178 0.719762 0 -0.283703 
487 1 487 0.71916 0.75977 0 -0.492615 
488 1 488 0.719145 0.799779 0 -0.551349 
489 1 489 0.719132 0.839791 0 -0.561141 
490 1 490 0.719131 0.879806 0 -0.645717 
491 1 491 0.719133 0.919826 0 -0.796679 
492 1 492 0.71914 0.95985 0 -1.19525 
493 1 493 0.719155 0.999881 0 -1.54042 
494 1 494 0.76 0 0 0 
495 1 495 0.759938 0.0399661 0 0.269651 
496 1 496 0.759877 0.0799352 0 0.493565 
497 1 497 0.75982 0.119907 0 0.721335 
498 1 498 0.759766 0.159883 0 0.845645 
499 1 499 0.759713 0.199862 0 0.842423 
500 1 500 0.759662 0.239843 0 0.659261 
501 1 501 0.759612 0.279826 0 0.357569 
502 1 502 0.759561 0.319812 0 0.122921 
503 1 503 0.759509 0.359799 0 0.0271905 
504 1 504 0.759461 0.399786 0 0.172061 
505 1 505 0.75941 0.439774 0 0.29134 
506 1 506 0.759367 0.479764 0 0.347616 
507 1 507 0.759326 0.519755 0 0.291085 
508 1 508 0.759288 0.559749 0 0.288173 
509 1 509 0.75924 0.599746 0 0.308034 
510 1 510 0.759202 0.639747 0 0.169064 
511 1 511 0.759172 0.679749 0 0.0366999 
512 1 512 0.759142 0.719753 0 -0.311864 
513 1 513 0.759113 0.759759 0 -0.484193 
514 1 514 0.759095 0.799768 0 -0.415128 
515 1 515 0.759086 0.83978 0 -0.312386 
516 1 516 0.759077 0.879795 0 -0.246342 
517 1 517 0.75907 0.919815 0 -0.238248 
518 1 518 0.759076 0.959839 0 -0.55121 
519 1 519 0.75909 0.999871 0 -0.89217 
520 1 520 0.8 0 0 0 
521 1 521 0.799936 0.039965 0 0.556951 
522 1 522 0.799873 0.0799317 0 0.861197 
523 1 523 0.799813 0.119902 0 1.06931 
524 1 524 0.799754 0.159877 0 1.16117 
525 1 525 0.7997 0.199854 0 1.13066 
526 1 526 0.799645 0.239835 0 0.875765 
527 1 527 0.799591 0.279818 0 0.500455 
528 1 528 0.799536 0.319803 0 0.211571 
529 1 529 0.799482 0.35979 0 0.041954 
530 1 530 0.799431 0.399777 0 0.170709 
531 1 531 0.799381 0.439764 0 0.293389 
532 1 532 0.799339 0.479752 0 0.382744 
533 1 533 0.799289 0.519742 0 0.329636 
534 1 534 0.799248 0.559737 0 0.2811 
535 1 535 0.799208 0.599733 0 0.271595 
536 1 536 0.799166 0.63973 0 0.0963855 
537 1 537 0.799116 0.679732 0 -0.0334573 
538 1 538 0.799078 0.719736 0 -0.360774 
539 1 539 0.799056 0.759743 0 -0.47108 
540 1 540 0.799035 0.799753 0 -0.333112 
541 1 541 0.79902 0.839768 0 -0.120052 
542 1 542 0.799013 0.879785 0 0.132395 
543 1 543 0.79901 0.919807 0 0.300752 
544 1 544 0.799007 0.959832 0 0.0765935 
545 1 545 0.799013 0.999865 0 -0.249838 
546 1 546 0.84 0 0 0 
547 1 547 0.839937 0.0399631 0 0.736713 
548 1 548 0.83987 0.0799279 0 1.17188 
549 1 549 0.839806 0.119896 0 1.43951 
550 1 550 0.839746 0.159869 0 1.52093 
551 1 551 0.839687 0.199845 0 1.47241 
552 1 552 0.839628 0.239825 0 1.19586 
553 1 553 0.83957 0.279807 0 0.788223 
554 1 554 0.839511 0.319792 0 0.459899 
555 1 555 0.839454 0.359778 0 0.246849 
556 1 556 0.839403 0.399763 0 0.352377 
557 1 557 0.83935 0.439749 0 0.417241 
558 1 558 0.839304 0.479737 0 0.413398 
559 1 559 0.839257 0.519728 0 0.246195 
560 1 560 0.839214 0.559722 0 0.0940343 
561 1 561 0.839159 0.59972 0 0.0394339 
562 1 562 0.839116 0.639722 0 -0.137517 
563 1 563 0.839081 0.679725 0 -0.212862 
564 1 564 0.839044 0.719728 0 -0.435005 
565 1 565 0.839009 0.759736 0 -0.4474 
566 1 566 0.838986 0.799747 0 -0.2166 
567 1 567 0.838972 0.839762 0 0.147933 
568 1 568 0.838957 0.87978 0 0.539532 
569 1 569 0.838946 0.919804 0 0.838822 
570 1 570 0.838942 0.959829 0 0.756276 
571 1 571 0.838947 0.999862 0 0.479763 
572 1 572 0.88 0 0 0 
573 1 573 0.879935 0.0399616 0 0.740669 
574 1 574 0.879868 0.0799247 0 1.29918 
575 1 575 0.879802 0.119891 0 1.70061 
576 1 576 0.879737 0.159862 0 1.85056 
577 1 577 0.879676 0.199837 0 1.83403 
578 1 578 0.879612 0.239815 0 1.5683 
579 1 579 0.879548 0.279797 0 1.14652 
580 1 580 0.879486 0.319781 0 0.772112 
581 1 581 0.879426 0.359766 0 0.456125 
582 1 582 0.87937 0.399752 0 0.417566 
583 1 583 0.879318 0.439738 0 0.363516 
584 1 584 0.879271 0.479726 0 0.277342 
585 1 585 0.879216 0.519717 0 0.0628456 
586 1 586 0.879169 0.559711 0 -0.132692 
587 1 587 0.879124 0.599707 0 -0.237557 
588 1 588 0.879077 0.639705 0 -0.440555 
589 1 589 0.879022 0.679706 0 -0.481055 
590 1 590 0.878978 0.719711 0 -0.551295 
591 1 591 0.878949 0.75972 0 -0.445502 
592 1 592 0.878921 0.799733 0 -0.136216 
593 1 593 0.8789 0.839752 0 0.379114 
594 1 594 0.878889 0.879774 0 0.868941 
595 1 595 0.878882 0.9198 0 1.25114 
596 1 596 0.87887 0.959828 0 1.29289 
597 1 597 0.878865 0.999863 0 1.06955 
598 1 598 0.92 0 0 0 
599 1 599 0.919935 0.03996 0 0.625217 
600 1 600 0.919866 0.0799228 0 1.24188 
601 1 601 0.919797 0.119889 0 1.77282 
602 1 602 0.919731 0.159858 0 2.02228 
603 1 603 0.919664 0.19983 0 2.0328 
604 1 604 0.919596 0.239807 0 1.79151 
605 1 605 0.919527 0.279787 0 1.38879 
606 1 606 0.919459 0.31977 0 0.984321 
607 1 607 0.919396 0.359753 0 0.616964 
608 1 608 0.91934 0.399738 0 0.496164 
609 1 609 0.919284 0.439724 0 0.361007 
610 1 610 0.919231 0.479712 0 0.170607 
611 1 611 0.919179 0.519704 0 -0.113984 
612 1 612 0.919129 0.559698 0 -0.367854 
613 1 613 0.919069 0.599696 0 -0.548091 
614 1 614 0.919021 0.639697 0 -0.754898 
615 1 615 0.918982 0.679699 0 -0.750741 
616 1 616 0.918939 0.719703 0 -0.654803 
617 1 617 0.918896 0.759713 0 -0.363361 
618 1 618 0.918867 0.799726 0 0.0967735 
619 1 619 0.918847 0.839747 0 0.737511 
620 1 620 0.918826 0.87977 0 1.27103 
621 1 621 0.918811 0.9198 0 1.71299 
622 1 622 0.9188 0.959831 0 1.82144 
623 1 623 0.918797 0.999866 0 1.61742 
624 1 624 0.96 0 0 0 
625 1 625 0.959931 0.0399602 0 0.435519 
626 1 626 0.959863 0.079923 0 1.05963 
627 1 627 0.959794 0.119888 0 1.67773 
628 1 628 0.959723 0.159855 0 1.9953 
629 1 629 0.959653 0.199827 0 2.00024 
630 1 630 0.95958 0.239802 0 1.79677 
631 1 631 0.959505 0.27978 0 1.48044 
632 1 632 0.959434 0.319762 0 1.12415 
633 1 633 0.959367 0.359744 0 0.738388 
634 1 634 0.959305 0.399729 0 0.46662 
635 1 635 0.959248 0.439715 0 0.181536 
636 1 636 0.959193 0.479703 0 -0.1133 
637 1 637 0.959132 0.519694 0 -0.44105 
638 1 638 0.959076 0.559689 0 -0.742721 
639 1 639 0.959028 0.599684 0 -0.953715 
640 1 640 0.958975 0.63968 0 -1.05966 
641 1 641 0.958913 0.679681 0 -0.934806 
642 1 642 0.958863 0.719686 0 -0.638362 
643 1 643 0.958825 0.759697 0 -0.179673 
644 1 644 0.958791 0.799712 0 0.368154 
645 1 645 0.958763 0.839737 0 1.06697 
646 1 646 0.958747 0.879764 0 1.64979 
647 1 647 0.958738 0.919797 0 2.1544 
648 1 648 0.958721 0.959832 0 2.25847 
649 1 649 0.958711 0.999869 0 2.03947 
650 1 650 1 0 0 0 
651 1 651 0.99993 0.0399599 0 0.245991 
652 1 652 0.999858 0.0799233 0 0.803034 
653 1 653 0.999787 0.119888 0 1.40716 
654 1 654 0.999715 0.159855 0 1.75809 
655 1 655 0.999641 0.199825 0 1.79726 
656 1 656 0.999563 0.239799 0 1.6659 
657 1 657 0.999484 0.279775 0 1.41426 
658 1 658 0.999408 0.319755 0 1.07402 
659 1 659 0.999337 0.359735 0 0.666629 
660 1 660 0.999275 0.399719 0 0.299816 
661 1 661 0.999213 0.439704 0 -0.0379123 
662 1 662 0.999151 0.479692 0 -0.375138 
663 1 663 0.999092 0.519683 0 -0.678194 
664 1 664 0.999033 0.559676 0 -0.928996 
665 1 665 0.998967 0.599673 0 -1.12019 
666 1 666 0.99891 0.639673 0 -1.17049 
667 1 667 0.998865 0.679675 0 -0.991693 
668 1 668 0.998816 0.719679 0 -0.518336 
669 1 669 0.998763 0.75969 0 0.109022 
670 1 670 0.998727 0.799707 0 0.779763 
671 1 671 0.9987 0.839732 0 1.51999 
672 1 672 0.998673 0.879761 0 2.07197 
673 1 673 0.998655 0.919797 0 2.54734 
674 1 674 0.998642 0.959835 0 2.62005 
675 1 675 0.998635 0.999875 0 2.41503 
676 1 676 1.04 0 0 0 
677 1 677 1.03992 0.0399612 0 0.130862 
678 1 678 1.03985 0.0799248 0 0.574113 
679 1 679 1.03978 0.119889 0 1.06125 
680 1 680 1.0397 0.159855 0 1.38056 
681 1 681 1.03963 0.199824 0 1.42286 
682 1 682 1.03954 0.239797 0 1.34709 
683 1 683 1.03946 0.279772 0 1.1896 
684 1 684 1.03938 0.31975 0 0.944136 
685 1 685 1.03931 0.359729 0 0.601844 
686 1 686 1.03924 0.399712 0 0.190297 
687 1 687 1.03917 0.439697 0 -0.210935 
688 1 688 1.03911 0.479685 0 -0.604847 
689 1 689 1.03904 0.519675 0 -0.881691 
690 1 690 1.03898 0.559668 0 -1.08677 
691 1 691 1.03892 0.599662 0 -1.22135 
692 1 692 1.03886 0.639657 0 -1.16278 
693 1 693 1.03879 0.679658 0 -0.888749 
694 1 694 1.03873 0.719665 0 -0.218894 
695 1 695 1.03868 0.759678 0 0.509233 
696 1 696 1.03864 0.799696 0 1.17595 
697 1 697 1.0386 0.839724 0 1.85592 
698 1 698 1.03858 0.879757 0 2.33497 
699 1 699 1.03857 0.919795 0 2.77226 
700 1 700 1.03855 0.959835 0 2.88343 
701 1 701 1.03854 0.999878 0 2.76571 
702 1 702 1.08 0 0 0 
703 1 703 1.07992 0.0399615 0 0.0875646 
704 1 704 1.07984 0.0799258 0 0.427415 
705 1 705 1.07977 0.11989 0 0.75453 
706 1 706 1.07969 0.159855 0 0.990057 
707 1 707 1.07961 0.199823 0 0.993459 
708 1 708 1.07952 0.239794 0 0.947045 
709 1 709 1.07944 0.279768 0 0.90245 
710 1 710 1.07936 0.319744 0 0.779206 
711 1 711 1.07928 0.359722 0 0.506192 
712 1 712 1.07921 0.399704 0 0.0689043 
713 1 713 1.07914 0.439688 0 -0.36134 
714 1 714 1.07907 0.479676 0 -0.765869 
715 1 715 1.079 0.519665 0 -0.984473 
716 1 716 1.07893 0.559657 0 -1.12858 
717 1 717 1.07886 0.599654 0 -1.19602 
718 1 718 1.07879 0.639654 0 -1.03883 
719 1 719 1.07874 0.679658 0 -0.707355 
720 1 720 1.07868 0.719664 0 0.0552574 
721 1 721 1.07861 0.759678 0 0.796263 
722 1 722 1.07857 0.799697 0 1.45383 
723 1 723 1.07853 0.839723 0 2.07923 
724 1 724 1.0785 0.879756 0 2.48723 
725 1 725 1.07847 0.919796 0 2.91351 
726 1 726 1.07846 0.959839 0 3.13999 
727 1 727 1.07845 0.999884 0 3.16329 
728 1 728 1.12 0 0 0 
729 1 729 1.11991 0.0399623 0 0.116101 
730 1 730 1.11984 0.0799257 0 0.323074 
731 1 731 1.11976 0.11989 0 0.421753 
732 1 732 1.11968 0.159856 0 0.553561 
733 1 733 1.11959 0.199823 0 0.571329 
734 1 734 1.1195 0.239793 0 0.585936 
735 1 735 1.11941 0.279765 0 0.615342 
736 1 736 1.11933 0.319739 0 0.581531 
737 1 737 1.11925 0.359717 0 0.407369 
738 1 738 1.11917 0.399698 0 -0.0018003 
739 1 739 1.1191 0.439682 0 -0.429801 
740 1 740 1.11902 0.479669 0 -0.803618 
741 1 741 1.11895 0.519659 0 -0.959187 
742 1 742 1.11887 0.559652 0 -1.06724 
743 1 743 1.11881 0.599646 0 -1.08252 
744 1 744 1.11874 0.639642 0 -0.846882 
745 1 745 1.11866 0.679646 0 -0.464718 
746 1 746 1.11859 0.719656 0 0.383194 
747 1 747 1.11853 0.759671 0 1.1592 
748 1 748 1.11848 0.799692 0 1.78286 
749 1 749 1.11843 0.83972 0 2.27697 
750 1 750 1.1184 0.879755 0 2.55344 
751 1 751 1.11838 0.919795 0 2.92405 
752 1 752 1.11836 0.95984 0 3.31268 
753 1 753 1.11834 0.999889 0 3.53186 
754 1 754 1.16 0 0 0 
755 1 755 1.15991 0.0399619 0 0.122455 
756 1 756 1.15983 0.0799251 0 0.190027 
757 1 757 1.15975 0.119889 0 0.112583 
758 1 758 1.15966 0.159855 0 0.14265 
759 1 759 1.15957 0.199821 0 0.154595 
760 1 760 1.15948 0.239789 0 0.252779 
761 1 761 1.15939 0.279759 0 0.374834 
762 1 762 1.1593 0.319732 0 0.432866 
763 1 763 1.15921 0.359708 0 0.361428 
764 1 764 1.15913 0.399688 0 0.00983104 
765 1 765 1.15906 0.439672 0 -0.406619 
766 1 766 1.15898 0.47966 0 -0.792676 
767 1 767 1.1589 0.51965 0 -0.943431 
768 1 768 1.15883 0.559642 0 -1.01274 
769 1 769 1.15874 0.59964 0 -0.944522 
770 1 770 1.15867 0.639644 0 -0.625086 
771 1 771 1.15861 0.67965 0 -0.228764 
772 1 772 1.15854 0.71966 0 0.567853 
773 1 773 1.15846 0.759677 0 1.25877 
774 1 774 1.1584 0.799699 0 1.83393 