ITEM: TIMESTEP
0
ITEM: NUMBER OF ATOMS
6875
ITEM: BOX BOUNDS sm sm sm
0 4
0 2
0 0
ITEM: ATOMS id type tag x y z damage s11 s22 s33 s12 s13 s23 vx T ienergy 
1 1 1 0.0200009 0.0200007 0 0 0.0191297 0.0132517 0.0103789 0.00581263 0 0 0.00698072 0 0 
2 1 2 0.0200018 0.0600008 0 0 0.0322783 0.0205248 0.0169256 0.00359601 0 0 0.0906784 0 0 
3 1 3 0.0200008 0.100001 0 0 0.0153418 0.001491 0.00540099 0.00288591 0 0 -0.24127 0 0 
4 1 4 0.0199997 0.140001 0 0 0.003255 0.0102774 0.00434152 0.00165634 0 0 -0.0814759 0 0 
5 1 5 0.0199997 0.180003 0 0 0.00280114 0.0075319 0.00331672 0.01479 0 0 0.0405526 0 0 
6 1 6 0.0200002 0.220004 0 0 0.0092374 0.0216969 0.00991732 0.014376 0 0 0.41375 0 0 
7 1 7 0.0199988 0.260008 0 0 -0.00370553 0.0213665 0.00566651 0.0322767 0 0 0.140167 0 0 
8 1 8 0.0199984 0.30001 0 0 -0.0243497 -0.00286764 -0.00871023 0.0401033 0 0 0.350469 0 0 
9 1 9 0.0199982 0.340012 0 0 -0.0234991 -0.00847137 -0.0102313 0.0511661 0 0 0.155894 0 0 
10 1 10 0.019999 0.38001 0 0 -0.0255382 -0.0280567 -0.0171603 0.0405804 0 0 -0.00571968 0 0 
11 1 11 0.0199984 0.420008 0 0 -0.0278179 -0.0274797 -0.0177063 0.0329396 0 0 -0.16116 0 0 
12 1 12 0.0199979 0.460006 0 0 -0.0350286 -0.0183529 -0.0170931 0.021669 0 0 -0.227356 0 0 
13 1 13 0.0199972 0.500007 0 0 -0.0289031 -0.0100853 -0.0124817 0.0326553 0 0 -0.727999 0 0 
14 1 14 0.0199985 0.540007 0 0 -0.00828929 0.00709634 -0.000372788 0.0306592 0 0 -0.85427 0 0 
15 1 15 0.02 0.58001 0 0 0.037115 0.0276991 0.0207708 0.0526672 0 0 -1.42339 0 0 
16 1 16 0.0200049 0.620009 0 0 0.09788 0.0323451 0.0417162 0.0444175 0 0 -1.73555 0 0 
17 1 17 0.0200084 0.660008 0 0 0.173708 0.0725638 0.0788594 0.0430503 0 0 -1.85966 0 0 
18 1 18 0.0200133 0.700004 0 0 0.221131 0.0704553 0.093358 0.0191126 0 0 -1.7171 0 0 
19 1 19 0.0200142 0.740001 0 0 0.263697 0.120088 0.122846 0.00570694 0 0 -1.36512 0 0 
20 1 20 0.0200176 0.779999 0 0 0.287827 0.120346 0.130644 0.00138699 0 0 -1.34828 0 0 
21 1 21 0.020017 0.819999 0 0 0.300849 0.158474 0.146995 -0.0100531 0 0 -0.209271 0 0 
22 1 22 0.0200202 0.859999 0 0 0.31972 0.133001 0.144885 0.0139382 0 0 -1.25227 0 0 
23 1 23 0.0200208 0.899997 0 0 0.325596 0.151406 0.152645 -0.028226 0 0 0.725182 0 0 
24 1 24 0.0200188 0.939992 0 0 0.266836 0.0530528 0.102411 -0.0212282 0 0 -1.10072 0 0 
25 1 25 0.0200235 0.979982 0 0 0.369189 0.106627 0.142295 -0.0838499 0 0 0.324691 0 0 
26 1 26 0.0600024 0.0200014 0 0 0.0100155 0.0126065 0.00725319 0.00993291 0 0 0.215121 0 0 
27 1 27 0.0600045 0.0600007 0 0 0.00497685 0.0032422 0.00264024 -0.0074655 0 0 0.693153 0 0 
28 1 28 0.060002 0.1 0 0 -0.0140523 -0.0245566 -0.012364 -0.0128751 0 0 -0.213284 0 0 
29 1 29 0.0599995 0.139999 0 0 -0.00354738 0.0139859 0.00335333 -0.0219808 0 0 0.157488 0 0 
30 1 30 0.0599981 0.180003 0 0 -0.0239864 0.00130011 -0.00726242 -0.00694628 0 0 0.253567 0 0 
31 1 31 0.0599968 0.220005 0 0 -0.0449492 0.0116082 -0.0106767 -0.0277128 0 0 0.767141 0 0 
32 1 32 0.0599921 0.260014 0 0 -0.048846 0.0406567 -0.00261734 -0.00794536 0 0 -0.00499984 0 0 
33 1 33 0.0599926 0.30002 0 0 -0.0586676 -0.00733196 -0.021143 -0.00264701 0 0 0.367811 0 0 
34 1 34 0.0599946 0.340025 0 0 -0.0237081 0.0121534 -0.0036949 0.0193496 0 0 0.299761 0 0 
35 1 35 0.0599982 0.380023 0 0 -0.0262252 -0.0423121 -0.0219552 0.0131171 0 0 0.256904 0 0 
36 1 36 0.0599971 0.42002 0 0 -0.0150951 -0.0203161 -0.0113387 0.0180248 0 0 0.153789 0 0 
37 1 37 0.059995 0.460019 0 0 -0.0245528 -0.012553 -0.011883 0.0145341 0 0 -0.219161 0 0 
38 1 38 0.0599933 0.500021 0 0 -0.0221688 0.021487 -0.000211762 0.0427728 0 0 -1.1775 0 0 
39 1 39 0.0599979 0.540025 0 0 -0.0121887 0.0174142 0.00168103 0.0484263 0 0 -1.17879 0 0 
40 1 40 0.060006 0.580031 0 0 0.0434787 0.0597338 0.0330673 0.0822935 0 0 -1.1618 0 0 
41 1 41 0.0600223 0.620031 0 0 0.0793978 -0.00723708 0.0231226 0.0821918 0 0 -1.03109 0 0 
42 1 42 0.0600355 0.660025 0 0 0.167757 0.0611861 0.0733147 0.0723649 0 0 -0.256342 0 0 
43 1 43 0.0600479 0.700016 0 0 0.182032 -0.0177925 0.0526053 0.0572213 0 0 -0.803651 0 0 
44 1 44 0.0600521 0.740005 0 0 0.258658 0.10406 0.11611 0.0139798 0 0 -0.00524434 0 0 
45 1 45 0.0600538 0.78 0 0 0.209155 0.0328483 0.0774943 0.017616 0 0 -1.41306 0 0 
46 1 46 0.0600547 0.819994 0 0 0.2759 0.14261 0.13395 -0.029553 0 0 0.0644891 0 0 
47 1 47 0.0600578 0.859992 0 0 0.238178 0.0625502 0.096282 0.00542209 0 0 -1.90958 0 0 
48 1 48 0.060064 0.899981 0 0 0.308344 0.075155 0.122757 -0.0702156 0 0 -0.427401 0 0 
49 1 49 0.0600618 0.939968 0 0 0.309424 0.0357714 0.110511 -0.054601 0 0 -1.55183 0 0 
50 1 50 0.0600692 0.979949 0 0 0.281038 0.0194176 0.0961984 -0.0529077 0 0 0.421496 0 0 
51 1 51 0.100003 0.02 0 0 0.00414745 -0.00343298 0.000223693 0.00919026 0 0 0.387023 0 0 
52 1 52 0.100005 0.0599972 0 0 -0.00311932 -0.0199315 -0.00738408 -0.0190845 0 0 0.81882 0 0 
53 1 53 0.100001 0.0999945 0 0 -0.0252014 -0.0355463 -0.0194602 -0.0221925 0 0 -0.761176 0 0 
54 1 54 0.0999962 0.139993 0 0 -0.0253254 -0.00313933 -0.00911304 -0.0306318 0 0 -0.888306 0 0 
55 1 55 0.0999912 0.179995 0 0 -0.0604779 -0.0173613 -0.0249381 -0.0233561 0 0 -1.102 0 0 
56 1 56 0.0999856 0.219998 0 0 -0.0887137 -0.0134258 -0.0327262 -0.0433139 0 0 -0.369115 0 0 
57 1 57 0.0999786 0.260007 0 0 -0.0758553 0.0431593 -0.0104696 -0.0237758 0 0 -0.965326 0 0 
58 1 58 0.0999804 0.300015 0 0 -0.0993371 -0.021147 -0.0386097 -0.0148173 0 0 -0.889458 0 0 
59 1 59 0.0999867 0.340022 0 0 -0.0502102 0.0309647 -0.00616139 0.00489853 0 0 -0.569716 0 0 
60 1 60 0.0999945 0.380025 0 0 -0.0487327 -0.0295021 -0.0250652 0.00469527 0 0 -0.409022 0 0 
61 1 61 0.0999946 0.420027 0 0 -0.0179953 0.0174571 -0.000166446 0.00270619 0 0 -0.0153313 0 0 
62 1 62 0.0999905 0.460031 0 0 -0.0291602 0.0056054 -0.00754324 0.0135956 0 0 -0.722487 0 0 
63 1 63 0.099987 0.500037 0 0 -0.0085981 0.0651802 0.0181301 0.0352323 0 0 -1.86523 0 0 
64 1 64 0.0999918 0.540046 0 0 -0.012357 0.0287212 0.00524867 0.0629835 0 0 -3.04808 0 0 
65 1 65 0.100006 0.580052 0 0 0.0628661 0.0803702 0.0458828 0.0886248 0 0 -3.40475 0 0 
66 1 66 0.100032 0.620053 0 0 0.0836301 -0.0130378 0.0226213 0.10649 0 0 -3.75496 0 0 
67 1 67 0.100056 0.660045 0 0 0.184533 0.0475122 0.0743087 0.0786859 0 0 -2.52572 0 0 
68 1 68 0.100074 0.700033 0 0 0.16534 -0.0509732 0.0366384 0.0739237 0 0 -3.15394 0 0 
69 1 69 0.100083 0.740015 0 0 0.226339 0.0338814 0.0833241 0.0193025 0 0 -2.08391 0 0 
70 1 70 0.100083 0.780002 0 0 0.195218 -0.00829724 0.0598656 0.0152912 0 0 -2.09941 0 0 
71 1 71 0.100085 0.819987 0 0 0.202867 0.0213349 0.0717981 -0.0147931 0 0 -1.00269 0 0 
72 1 72 0.100092 0.859975 0 0 0.234614 0.0305498 0.0849035 -0.00920084 0 0 -1.20019 0 0 
73 1 73 0.100103 0.899959 0 0 0.219606 -0.0312354 0.0603332 -0.0308414 0 0 -1.87431 0 0 
74 1 74 0.100106 0.939936 0 0 0.25702 -0.00238583 0.0815451 -0.0636587 0 0 -1.85253 0 0 
75 1 75 0.100107 0.97992 0 0 0.210639 0.0092354 0.0704192 -0.0576514 0 0 -0.0811576 0 0 
76 1 76 0.140003 0.0199971 0 0 -0.0291082 -0.0504249 -0.0254906 0.00738024 0 0 0.502998 0 0 
77 1 77 0.140005 0.0599917 0 0 -0.0359103 -0.0439927 -0.0256039 -0.0228496 0 0 0.92381 0 0 
78 1 78 0.139998 0.0999888 0 0 -0.0501734 -0.0385009 -0.0284179 -0.0237879 0 0 -0.802609 0 0 
79 1 79 0.13999 0.139987 0 0 -0.0733532 -0.0353976 -0.034851 -0.0284862 0 0 -1.82955 0 0 
80 1 80 0.139981 0.179989 0 0 -0.0968682 -0.028123 -0.0400556 -0.0240487 0 0 -2.20214 0 0 
81 1 81 0.139972 0.219993 0 0 -0.103451 -0.0165376 -0.0384493 -0.0269406 0 0 -1.46546 0 0 
82 1 82 0.139963 0.26 0 0 -0.091532 0.0158668 -0.0242405 -0.0119477 0 0 -2.23977 0 0 
83 1 83 0.139965 0.300007 0 0 -0.104242 -0.0143562 -0.0380045 0.00435144 0 0 -2.53535 0 0 
84 1 84 0.139975 0.340015 0 0 -0.0649402 0.0321669 -0.0104954 0.0198673 0 0 -1.86472 0 0 
85 1 85 0.139987 0.380023 0 0 -0.0611684 0.00389478 -0.0183451 0.0137677 0 0 -1.42955 0 0 
86 1 86 0.139989 0.42003 0 0 -0.0287014 0.0471359 0.00591496 -0.00395437 0 0 -0.658491 0 0 
87 1 87 0.139984 0.46004 0 0 -0.0276357 0.0401696 0.00402299 0.00517553 0 0 -1.25202 0 0 
88 1 88 0.139982 0.50005 0 0 -0.000333643 0.0779286 0.0248624 0.019069 0 0 -2.0891 0 0 
89 1 89 0.13999 0.54006 0 0 0.00195307 0.0495506 0.0165065 0.0502573 0 0 -2.74301 0 0 
90 1 90 0.140013 0.580067 0 0 0.0377621 0.0511326 0.0284821 0.0810752 0 0 -2.49894 0 0 
91 1 91 0.140048 0.620067 0 0 0.0482724 -0.0154936 0.0105077 0.0952681 0 0 -1.75536 0 0 
92 1 92 0.140082 0.660058 0 0 0.0919201 -0.0226201 0.0222055 0.077639 0 0 -0.515252 0 0 
93 1 93 0.140105 0.700044 0 0 0.103653 -0.0677157 0.0115187 0.0500762 0 0 -0.342884 0 0 
94 1 94 0.140114 0.740025 0 0 0.113826 -0.0641825 0.01591 0.0230781 0 0 -0.523812 0 0 
95 1 95 0.140116 0.780004 0 0 0.133225 -0.0696792 0.0203621 0.00143325 0 0 -0.276661 0 0 
96 1 96 0.140116 0.819984 0 0 0.148344 -0.060792 0.0280521 0.00514069 0 0 0.0624014 0 0 
97 1 97 0.140127 0.859961 0 0 0.154237 -0.0713224 0.0265692 0.0170722 0 0 -0.773559 0 0 
98 1 98 0.140139 0.899941 0 0 0.192075 -0.0165964 0.056209 -0.00337477 0 0 -1.49871 0 0 
99 1 99 0.140143 0.93992 0 0 0.163415 -0.0764286 0.0278731 -0.0100508 0 0 -2.43968 0 0 
100 1 100 0.140139 0.979901 0 0 0.182226 0.00405204 0.0596625 -0.0424159 0 0 -0.281324 0 0 
101 1 101 0.180002 0.0199957 0 0 -0.0485827 -0.0791573 -0.0409344 0.0077868 0 0 0.492316 0 0 
102 1 102 0.180001 0.0599894 0 0 -0.0464731 -0.0417574 -0.0282694 -0.0121007 0 0 0.510861 0 0 
103 1 103 0.179991 0.0999876 0 0 -0.066187 -0.0374255 -0.0332064 -0.0209335 0 0 -1.58924 0 0 
104 1 104 0.179979 0.139986 0 0 -0.0981034 -0.0516959 -0.0480144 -0.0234357 0 0 -3.156 0 0 
105 1 105 0.179966 0.179989 0 0 -0.0882563 -0.00423636 -0.0296405 -0.0159061 0 0 -3.65998 0 0 
106 1 106 0.179956 0.219994 0 0 -0.0969113 -0.0134022 -0.0353488 -0.0142447 0 0 -3.65043 0 0 
107 1 107 0.179948 0.26 0 0 -0.091776 -0.0126674 -0.0334658 -0.00270518 0 0 -4.54574 0 0 
108 1 108 0.179951 0.300005 0 0 -0.076362 0.00535089 -0.02275 0.0173926 0 0 -4.37921 0 0 
109 1 109 0.179963 0.340013 0 0 -0.0573584 0.0246223 -0.010483 0.0325652 0 0 -3.54429 0 0 
110 1 110 0.179976 0.380021 0 0 -0.049531 0.0320088 -0.00560508 0.0171068 0 0 -2.74998 0 0 
111 1 111 0.17998 0.420033 0 0 -0.0205388 0.0731573 0.0168674 -0.000639454 0 0 -1.99787 0 0 
112 1 112 0.179977 0.460044 0 0 -0.015117 0.0549888 0.0127831 -0.00521725 0 0 -2.15804 0 0 
113 1 113 0.179976 0.500056 0 0 0.00980791 0.0827353 0.0296517 0.00980965 0 0 -3.13353 0 0 
114 1 114 0.179986 0.540064 0 0 0.021172 0.042134 0.0202877 0.0369307 0 0 -3.87007 0 0 
115 1 115 0.180013 0.580069 0 0 0.0570465 0.0520825 0.0349609 0.0686906 0 0 -4.00245 0 0 
116 1 116 0.180053 0.620068 0 0 0.0597076 -0.0116809 0.0153898 0.0808516 0 0 -3.58539 0 0 
117 1 117 0.180093 0.66006 0 0 0.0823603 -0.018683 0.0204027 0.0668248 0 0 -2.51742 0 0 
118 1 118 0.18012 0.700047 0 0 0.0688575 -0.0791296 -0.00328667 0.03554 0 0 -1.8479 0 0 
119 1 119 0.180132 0.740028 0 0 0.0827312 -0.0720726 0.00342128 0.0116817 0 0 -1.32215 0 0 
120 1 120 0.180136 0.780007 0 0 0.0560838 -0.138982 -0.0265598 0.00566561 0 0 -0.944658 0 0 
121 1 121 0.18014 0.819982 0 0 0.0891752 -0.088779 0.000134642 0.00956681 0 0 -0.0250115 0 0 
122 1 122 0.180151 0.859958 0 0 0.0620006 -0.144803 -0.0265253 0.0387572 0 0 -0.73115 0 0 
123 1 123 0.180165 0.899935 0 0 0.108829 -0.0489411 0.0191955 0.0259124 0 0 -1.56265 0 0 
124 1 124 0.180171 0.939918 0 0 0.119675 -0.063939 0.0178603 0.00353551 0 0 -2.35496 0 0 
125 1 125 0.180168 0.979899 0 0 0.163077 -0.03758 0.0402012 -0.0129785 0 0 -1.06877 0 0 
126 1 126 0.22 0.019997 0 0 -0.0454177 -0.0638867 -0.0350253 0.00408005 0 0 0.875236 0 0 
127 1 127 0.219996 0.059992 0 0 -0.0612765 -0.0444828 -0.0338846 -0.00902758 0 0 0.780074 0 0 
128 1 128 0.219983 0.0999911 0 0 -0.0777635 -0.0352339 -0.0362096 -0.0232942 0 0 -1.35833 0 0 
129 1 129 0.219967 0.13999 0 0 -0.096341 -0.0451252 -0.0453416 -0.0154465 0 0 -2.97758 0 0 
130 1 130 0.219953 0.179995 0 0 -0.0782697 0.0127218 -0.0210056 -0.0100156 0 0 -4.21071 0 0 
131 1 131 0.219942 0.219999 0 0 -0.102755 -0.0357608 -0.0443935 -0.00897468 0 0 -5.02437 0 0 
132 1 132 0.219936 0.260003 0 0 -0.0743994 -0.0174426 -0.0294284 0.00783086 0 0 -5.75812 0 0 
133 1 133 0.21994 0.300006 0 0 -0.0494385 0.00618942 -0.0138539 0.0209844 0 0 -5.36123 0 0 
134 1 134 0.219953 0.340012 0 0 -0.051154 0.0169315 -0.0109611 0.0329564 0 0 -4.93687 0 0 
135 1 135 0.219965 0.38002 0 0 -0.0517937 0.039291 -0.00399963 0.0142968 0 0 -3.94494 0 0 
136 1 136 0.21997 0.420033 0 0 -0.0290917 0.0848269 0.0178616 0.00350289 0 0 -3.39978 0 0 
137 1 137 0.21997 0.460045 0 0 -0.0318345 0.0297565 -0.000659903 -0.00463283 0 0 -3.25251 0 0 
138 1 138 0.219972 0.500055 0 0 0.0163702 0.0830815 0.0318618 0.00578994 0 0 -3.37853 0 0 
139 1 139 0.219988 0.540061 0 0 -0.00899779 -0.00843242 -0.00557853 0.035813 0 0 -3.65132 0 0 
140 1 140 0.220019 0.580061 0 0 0.00992223 0.015597 0.00818086 0.0548362 0 0 -2.60928 0 0 
141 1 141 0.220062 0.620059 0 0 -0.0281404 -0.0511101 -0.025394 0.0696766 0 0 -1.62021 0 0 
142 1 142 0.220105 0.660052 0 0 -0.0288336 -0.0610067 -0.0287881 0.0531123 0 0 -0.127049 0 0 
143 1 143 0.220134 0.700042 0 0 -0.0406082 -0.0987925 -0.0446748 0.0244748 0 0 0.869524 0 0 
144 1 144 0.220147 0.740026 0 0 -0.0265853 -0.121373 -0.0474165 0.0108291 0 0 1.00147 0 0 
145 1 145 0.220154 0.780006 0 0 -0.000634734 -0.148384 -0.0477555 0.00450497 0 0 1.4167 0 0 
146 1 146 0.220159 0.819982 0 0 0.0292091 -0.127893 -0.0316177 0.0148914 0 0 1.33996 0 0 
147 1 147 0.22017 0.859958 0 0 0.0250709 -0.145043 -0.0384429 0.0335159 0 0 0.023727 0 0 
148 1 148 0.220184 0.899938 0 0 0.058386 -0.0698741 -0.00367249 0.0333865 0 0 -1.33326 0 0 
149 1 149 0.220193 0.939921 0 0 0.0771539 -0.0795332 -0.000756198 0.0253832 0 0 -2.56082 0 0 
150 1 150 0.220193 0.979904 0 0 0.132092 -0.0265092 0.0338267 -0.00191006 0 0 -1.97271 0 0 
151 1 151 0.259997 0.0199983 0 0 -0.0365629 -0.0383462 -0.0240031 -0.0101162 0 0 0.506121 0 0 
152 1 152 0.259988 0.0599951 0 0 -0.0676419 -0.0466758 -0.0366282 -0.0191655 0 0 -0.0688051 0 0 
153 1 153 0.259973 0.0999963 0 0 -0.059212 -0.00432039 -0.0203515 -0.0276563 0 0 -1.47148 0 0 
154 1 154 0.259956 0.139999 0 0 -0.0746737 -0.0227902 -0.0312312 -0.0144519 0 0 -2.91158 0 0 
155 1 155 0.25994 0.180004 0 0 -0.0599258 0.01323 -0.0149612 -0.0112717 0 0 -4.83217 0 0 
156 1 156 0.25993 0.220006 0 0 -0.0646069 -0.0308791 -0.0305982 -0.000537389 0 0 -5.74519 0 0 
157 1 157 0.259928 0.260008 0 0 -0.0273941 -0.00527053 -0.0104624 0.0210734 0 0 -6.0023 0 0 
158 1 158 0.259934 0.300008 0 0 -0.030446 -0.00770286 -0.0122199 0.0190916 0 0 -5.48017 0 0 
159 1 159 0.259943 0.340011 0 0 -0.0593935 0.00321418 -0.017998 0.0262221 0 0 -5.43609 0 0 
160 1 160 0.259952 0.38002 0 0 -0.0717171 0.0361713 -0.0113851 0.0121534 0 0 -4.62856 0 0 
161 1 161 0.259957 0.420033 0 0 -0.060186 0.0649072 0.00151621 0.00376288 0 0 -4.39173 0 0 
162 1 162 0.25996 0.460043 0 0 -0.0721444 -0.00272719 -0.023992 8.30192e-05 0 0 -4.27073 0 0 
163 1 163 0.259967 0.500049 0 0 -0.0152773 0.0432127 0.00895177 0.00653467 0 0 -4.02931 0 0 
164 1 164 0.259985 0.540051 0 0 -0.030292 -0.0466529 -0.0246538 0.0312442 0 0 -4.42835 0 0 
165 1 165 0.260017 0.580047 0 0 -0.0055399 -0.0199292 -0.0081559 0.0468159 0 0 -3.92169 0 0 
166 1 166 0.260058 0.620043 0 0 -0.018546 -0.0391147 -0.018473 0.055778 0 0 -3.529 0 0 
167 1 167 0.260099 0.660038 0 0 -0.0405211 -0.0581359 -0.031613 0.0452893 0 0 -2.58596 0 0 
168 1 168 0.260129 0.700031 0 0 -0.0363243 -0.0602654 -0.030948 0.0165928 0 0 -0.917714 0 0 
169 1 169 0.260147 0.740021 0 0 -0.0420716 -0.10653 -0.0476222 0.0141513 0 0 -0.055718 0 0 
170 1 170 0.26016 0.780003 0 0 -0.0363001 -0.151454 -0.0601774 0.0118182 0 0 0.820092 0 0 
171 1 171 0.26017 0.819981 0 0 0.0109166 -0.119692 -0.0348532 0.0164603 0 0 1.25417 0 0 
172 1 172 0.260182 0.859959 0 0 -0.00812351 -0.159653 -0.0537722 0.0315204 0 0 0.0836902 0 0 
173 1 173 0.260195 0.89994 0 0 0.0289285 -0.0614611 -0.0104175 0.0314565 0 0 -1.05059 0 0 
174 1 174 0.260208 0.939927 0 0 0.0424234 -0.0743624 -0.010228 0.0424956 0 0 -2.30498 0 0 
175 1 175 0.260214 0.979913 0 0 0.0971409 -0.0261649 0.0227449 0.0209277 0 0 -2.43249 0 0 
176 1 176 0.299994 0.0199988 0 0 -0.0389753 -0.0283799 -0.0215834 -0.0258292 0 0 0.0190444 0 0 
177 1 177 0.29998 0.0599979 0 0 -0.0762031 -0.0371138 -0.0363117 -0.0234443 0 0 -0.553045 0 0 
178 1 178 0.299964 0.100002 0 0 -0.0573835 0.0173781 -0.0128123 -0.0275289 0 0 -0.787726 0 0 
179 1 179 0.299946 0.140007 0 0 -0.0762195 -0.0157248 -0.0294603 -0.0210077 0 0 -1.90627 0 0 
180 1 180 0.29993 0.18001 0 0 -0.0720844 -0.0111613 -0.0266732 -0.0147583 0 0 -3.98116 0 0 
181 1 181 0.299923 0.220012 0 0 -0.0588758 -0.0222874 -0.0260046 0.00399395 0 0 -4.70914 0 0 
182 1 182 0.299924 0.260013 0 0 -0.0507219 -0.0337917 -0.0270777 0.0215817 0 0 -4.86664 0 0 
183 1 183 0.299928 0.30001 0 0 -0.0670282 -0.0433387 -0.0353656 0.00779564 0 0 -4.39178 0 0 
184 1 184 0.299931 0.340012 0 0 -0.0915365 -0.0129665 -0.0334853 0.0121099 0 0 -4.45898 0 0 
185 1 185 0.299936 0.380019 0 0 -0.121096 0.00391322 -0.0375499 0.00663198 0 0 -4.20177 0 0 
186 1 186 0.299939 0.42003 0 0 -0.119698 0.0174374 -0.0327683 0.00332617 0 0 -4.41293 0 0 
187 1 187 0.299946 0.460038 0 0 -0.128114 -0.0412632 -0.0542913 0.00399912 0 0 -4.26881 0 0 
188 1 188 0.299958 0.500041 0 0 -0.0923243 -0.0263743 -0.038042 0.0124377 0 0 -3.84601 0 0 
189 1 189 0.299981 0.540038 0 0 -0.1092 -0.108145 -0.0696732 0.0310404 0 0 -3.38122 0 0 
190 1 190 0.300015 0.58003 0 0 -0.10305 -0.0815786 -0.0591777 0.0422889 0 0 -2.19181 0 0 
191 1 191 0.300054 0.620024 0 0 -0.145491 -0.106633 -0.0808275 0.0457592 0 0 -1.58208 0 0 
192 1 192 0.300093 0.66002 0 0 -0.163484 -0.0928739 -0.0821853 0.0393332 0 0 -0.617412 0 0 
193 1 193 0.300124 0.700017 0 0 -0.154478 -0.101817 -0.0821638 0.0239358 0 0 0.786142 0 0 
194 1 194 0.300147 0.74001 0 0 -0.101958 -0.0986569 -0.0643024 0.0182214 0 0 1.8201 0 0 
195 1 195 0.300165 0.779997 0 0 -0.0692879 -0.144202 -0.0684331 0.0221842 0 0 2.2371 0 0 
196 1 196 0.30018 0.819979 0 0 -0.0139905 -0.116464 -0.0418043 0.0257477 0 0 1.58454 0 0 
197 1 197 0.300193 0.859961 0 0 -0.00305724 -0.129114 -0.0423555 0.0260925 0 0 0.502094 0 0 
198 1 198 0.300204 0.899945 0 0 0.0153733 -0.056976 -0.0133241 0.0388414 0 0 -0.536662 0 0 
199 1 199 0.300218 0.939935 0 0 0.0146811 -0.0489958 -0.0109898 0.0571877 0 0 -1.96045 0 0 
200 1 200 0.300227 0.979928 0 0 0.0507542 -0.0132181 0.0120334 0.0359857 0 0 -2.80094 0 0 
201 1 201 0.33999 0.02 0 0 -0.0118183 -0.00193849 -0.00440691 -0.0365861 0 0 -0.663755 0 0 
202 1 202 0.339972 0.0600016 0 0 -0.0262756 0.00426425 -0.00704869 -0.0263221 0 0 -1.47293 0 0 
203 1 203 0.339955 0.100007 0 0 -0.0254988 0.0330623 0.00242828 -0.0325584 0 0 -0.878364 0 0 
204 1 204 0.339936 0.140012 0 0 -0.0553737 -0.00728077 -0.0200728 -0.0322287 0 0 -1.33202 0 0 
205 1 205 0.33992 0.180015 0 0 -0.060842 -0.0184574 -0.0254086 -0.018506 0 0 -2.92041 0 0 
206 1 206 0.339915 0.220015 0 0 -0.0535862 -0.0215391 -0.0240682 0.000554532 0 0 -3.46 0 0 
207 1 207 0.339917 0.260014 0 0 -0.0792157 -0.0598001 -0.0445491 0.00660224 0 0 -3.38681 0 0 
208 1 208 0.339918 0.30001 0 0 -0.113094 -0.0765755 -0.0607924 -0.00939028 0 0 -2.81626 0 0 
209 1 209 0.339915 0.340011 0 0 -0.132338 -0.0258421 -0.0506936 -0.0145354 0 0 -2.92714 0 0 
210 1 210 0.339912 0.380017 0 0 -0.197424 -0.0606407 -0.08273 -0.0144288 0 0 -3.49514 0 0 
211 1 211 0.339914 0.420024 0 0 -0.201476 -0.0408093 -0.0776688 -0.00497955 0 0 -4.25184 0 0 
212 1 212 0.339924 0.460029 0 0 -0.204131 -0.090931 -0.0946055 0.00178046 0 0 -3.93802 0 0 
213 1 213 0.339941 0.500028 0 0 -0.170726 -0.096621 -0.0857144 0.0133211 0 0 -3.41296 0 0 
214 1 214 0.339967 0.540021 0 0 -0.162705 -0.143497 -0.0981806 0.0277259 0 0 -2.99333 0 0 
215 1 215 0.34 0.580012 0 0 -0.13334 -0.105806 -0.0766638 0.0346076 0 0 -2.74543 0 0 
216 1 216 0.340035 0.620005 0 0 -0.139013 -0.106437 -0.0786864 0.0349306 0 0 -2.95742 0 0 
217 1 217 0.34007 0.660003 0 0 -0.124397 -0.0556443 -0.057706 0.0364885 0 0 -2.57773 0 0 
218 1 218 0.340104 0.700001 0 0 -0.117948 -0.070312 -0.0603414 0.0338301 0 0 -1.33676 0 0 
219 1 219 0.340134 0.739998 0 0 -0.0843372 -0.0714008 -0.0499119 0.0343546 0 0 0.410178 0 0 
220 1 220 0.340163 0.779989 0 0 -0.0450179 -0.0923367 -0.0440185 0.0343063 0 0 1.69145 0 0 
221 1 221 0.340185 0.819977 0 0 -0.00757535 -0.09449 -0.032704 0.0341006 0 0 1.46807 0 0 
222 1 222 0.3402 0.859962 0 0 -0.0082505 -0.0950784 -0.03311 0.0241132 0 0 0.72196 0 0 
223 1 223 0.340209 0.899951 0 0 0.000160286 -0.0392652 -0.0125245 0.0297344 0 0 0.163815 0 0 
224 1 224 0.340221 0.939946 0 0 -0.0135967 -0.0362254 -0.01596 0.0615551 0 0 -1.21757 0 0 
225 1 225 0.340232 0.979944 0 0 0.00578493 0.0075063 0.00426502 0.0430219 0 0 -2.60051 0 0 
226 1 226 0.379989 0.020002 0 0 0.00268213 0.0246457 0.00875811 -0.042846 0 0 -1.05788 0 0 
227 1 227 0.379968 0.0600054 0 0 -0.0270455 0.0101989 -0.00539227 -0.0349741 0 0 -1.95619 0 0 
228 1 228 0.379947 0.10001 0 0 -0.0527472 0.00264175 -0.0160509 -0.0441605 0 0 -0.642712 0 0 
229 1 229 0.379927 0.140013 0 0 -0.0690239 -0.0203047 -0.0286229 -0.0423743 0 0 -0.152732 0 0 
230 1 230 0.379912 0.180014 0 0 -0.0746398 -0.0326914 -0.0343953 -0.0284997 0 0 -1.12256 0 0 
231 1 231 0.379907 0.220013 0 0 -0.0960015 -0.0639312 -0.051259 -0.0135212 0 0 -1.66103 0 0 
232 1 232 0.379907 0.260009 0 0 -0.120544 -0.0798014 -0.0642184 -0.0166904 0 0 -1.02333 0 0 
233 1 233 0.379904 0.300005 0 0 -0.161966 -0.102498 -0.0847862 -0.0313374 0 0 -0.394783 0 0 
234 1 234 0.379893 0.340006 0 0 -0.185579 -0.0623237 -0.0794719 -0.0471193 0 0 -0.925998 0 0 
235 1 235 0.379883 0.380008 0 0 -0.255132 -0.116453 -0.119162 -0.0453076 0 0 -1.86118 0 0 
236 1 236 0.379882 0.420011 0 0 -0.25778 -0.0911409 -0.111887 -0.0183518 0 0 -2.92679 0 0 
237 1 237 0.379896 0.460013 0 0 -0.260003 -0.129525 -0.124925 -0.00817351 0 0 -2.56736 0 0 
238 1 238 0.379918 0.500008 0 0 -0.250783 -0.162996 -0.132712 0.00856459 0 0 -1.89708 0 0 
239 1 239 0.379949 0.54 0 0 -0.241801 -0.174149 -0.133408 0.0182239 0 0 -0.827671 0 0 
240 1 240 0.379982 0.579992 0 0 -0.252178 -0.16353 -0.13333 0.0220383 0 0 -0.355739 0 0 
241 1 241 0.380016 0.619985 0 0 -0.276904 -0.161795 -0.140715 0.0254811 0 0 -0.303832 0 0 
242 1 242 0.380051 0.659985 0 0 -0.252132 -0.0973324 -0.112065 0.0366056 0 0 0.0835561 0 0 
243 1 243 0.380087 0.699986 0 0 -0.229304 -0.111326 -0.10923 0.0471905 0 0 0.79777 0 0 
244 1 244 0.380125 0.739986 0 0 -0.155331 -0.0777521 -0.0747198 0.0531054 0 0 2.13729 0 0 
245 1 245 0.38016 0.779981 0 0 -0.0970905 -0.0907586 -0.0602115 0.0587512 0 0 2.43817 0 0 
246 1 246 0.380189 0.819973 0 0 -0.0384553 -0.0743824 -0.0361587 0.0431631 0 0 1.85097 0 0 
247 1 247 0.380204 0.859964 0 0 -0.0175542 -0.0623857 -0.0256144 0.0216011 0 0 1.35859 0 0 
248 1 248 0.38021 0.899958 0 0 -0.0217896 -0.0348086 -0.0181319 0.0245728 0 0 0.838904 0 0 
249 1 249 0.380219 0.939956 0 0 -0.045277 -0.0208018 -0.0211703 0.048782 0 0 -0.399414 0 0 
250 1 250 0.380227 0.979959 0 0 -0.048368 0.017483 -0.0098903 0.0395549 0 0 -1.9619 0 0 
251 1 251 0.419988 0.0200034 0 0 0.0321783 0.0528183 0.0272307 -0.0457191 0 0 -1.23432 0 0 
252 1 252 0.419965 0.0600077 0 0 0.0194379 0.0296235 0.0157251 -0.0478665 0 0 -2.28381 0 0 
253 1 253 0.419942 0.10001 0 0 -0.0115298 -0.00190434 -0.0042983 -0.054416 0 0 -0.609324 0 0 
254 1 254 0.41992 0.14001 0 0 -0.0280751 -0.0112737 -0.0126036 -0.0490272 0 0 0.463922 0 0 
255 1 255 0.419904 0.180009 0 0 -0.0621537 -0.0467234 -0.0348905 -0.0434843 0 0 0.0848567 0 0 
256 1 256 0.419896 0.220004 0 0 -0.106488 -0.0892143 -0.0627309 -0.0290933 0 0 -0.151144 0 0 
257 1 257 0.419892 0.26 0 0 -0.130103 -0.0798205 -0.067292 -0.0333346 0 0 0.642348 0 0 
258 1 258 0.419883 0.299996 0 0 -0.185881 -0.114274 -0.0962399 -0.0535534 0 0 0.849519 0 0 
259 1 259 0.419866 0.339994 0 0 -0.226707 -0.106497 -0.106845 -0.0713325 0 0 -0.275579 0 0 
260 1 260 0.419849 0.379992 0 0 -0.27456 -0.14833 -0.135636 -0.0620941 0 0 -1.06183 0 0 
261 1 261 0.419847 0.419992 0 0 -0.274705 -0.126509 -0.128677 -0.025713 0 0 -2.04894 0 0 
262 1 262 0.419862 0.459989 0 0 -0.292485 -0.167649 -0.147599 -0.0133849 0 0 -1.87709 0 0 
263 1 263 0.419887 0.499983 0 0 -0.289103 -0.18788 -0.153011 0.00670383 0 0 -1.05393 0 0 
264 1 264 0.41992 0.539975 0 0 -0.26447 -0.172893 -0.140284 0.0178141 0 0 -0.0730184 0 0 
265 1 265 0.419952 0.579968 0 0 -0.23768 -0.14615 -0.123094 0.0154989 0 0 -0.0512746 0 0 
266 1 266 0.419982 0.619964 0 0 -0.227714 -0.12182 -0.112087 0.0193974 0 0 -0.709972 0 0 
267 1 267 0.420016 0.659966 0 0 -0.188278 -0.050445 -0.0765295 0.0400553 0 0 -1.29978 0 0 
268 1 268 0.420057 0.69997 0 0 -0.167908 -0.0700045 -0.0762693 0.0592687 0 0 -0.603071 0 0 
269 1 269 0.420104 0.739973 0 0 -0.113626 -0.0300566 -0.0460482 0.0665441 0 0 1.30055 0 0 
270 1 270 0.420149 0.779973 0 0 -0.0880065 -0.056517 -0.0463186 0.0721677 0 0 1.95352 0 0 
271 1 271 0.420184 0.81997 0 0 -0.0630459 -0.0565992 -0.038342 0.0501201 0 0 1.96717 0 0 
272 1 272 0.420202 0.859966 0 0 -0.0447459 -0.0363112 -0.0259735 0.0173067 0 0 1.90093 0 0 
273 1 273 0.420207 0.899964 0 0 -0.0497194 -0.0395729 -0.0286117 0.0108127 0 0 1.538 0 0 
274 1 274 0.42021 0.939964 0 0 -0.0759991 -0.0169163 -0.0297729 0.0277624 0 0 0.448089 0 0 
275 1 275 0.420214 0.979972 0 0 -0.0936104 0.0309216 -0.0200833 0.0232557 0 0 -1.13861 0 0 
276 1 276 0.459989 0.0200032 0 0 0.0205177 0.0433593 0.0204657 -0.0470913 0 0 -0.818588 0 0 
277 1 277 0.459965 0.060007 0 0 0.00240095 0.0207116 0.00741339 -0.0603523 0 0 -1.31689 0 0 
278 1 278 0.45994 0.100007 0 0 -0.0305325 -0.0279332 -0.0187283 -0.0614374 0 0 0.430154 0 0 
279 1 279 0.459917 0.140006 0 0 -0.0375147 -0.0294394 -0.0214501 -0.0540344 0 0 1.47401 0 0 
280 1 280 0.459898 0.180001 0 0 -0.068182 -0.0722058 -0.0449917 -0.0497233 0 0 1.55883 0 0 
281 1 281 0.459887 0.219994 0 0 -0.0996669 -0.0932775 -0.0618449 -0.0345596 0 0 1.70903 0 0 
282 1 282 0.459878 0.259989 0 0 -0.132845 -0.0779716 -0.0675776 -0.0429384 0 0 2.07167 0 0 
283 1 283 0.459862 0.299985 0 0 -0.195438 -0.128482 -0.103867 -0.0638288 0 0 1.76219 0 0 
284 1 284 0.45984 0.339981 0 0 -0.208803 -0.114694 -0.10373 -0.0783611 0 0 0.808713 0 0 
285 1 285 0.45982 0.379976 0 0 -0.24138 -0.156553 -0.127624 -0.0627556 0 0 0.0322975 0 0 
286 1 286 0.459816 0.419971 0 0 -0.257557 -0.15324 -0.131756 -0.0300209 0 0 -1.06388 0 0 
287 1 287 0.459829 0.459963 0 0 -0.285751 -0.186277 -0.151422 -0.0104165 0 0 -0.826775 0 0 
288 1 288 0.459856 0.499956 0 0 -0.282918 -0.181026 -0.148825 0.0137812 0 0 0.448044 0 0 
289 1 289 0.45989 0.539949 0 0 -0.292371 -0.171515 -0.148803 0.0191373 0 0 1.6401 0 0 
290 1 290 0.459922 0.579945 0 0 -0.315971 -0.170212 -0.155963 0.0176967 0 0 1.89915 0 0 
291 1 291 0.459953 0.619944 0 0 -0.320429 -0.145618 -0.149497 0.0187516 0 0 2.35815 0 0 
292 1 292 0.459987 0.659947 0 0 -0.303545 -0.100683 -0.129645 0.0467148 0 0 1.88236 0 0 
293 1 293 0.460033 0.699952 0 0 -0.280904 -0.110787 -0.12562 0.0721981 0 0 1.91056 0 0 
294 1 294 0.460085 0.739958 0 0 -0.202772 -0.0534771 -0.0821514 0.0777911 0 0 3.01859 0 0 
295 1 295 0.460136 0.779962 0 0 -0.157272 -0.0616332 -0.0701733 0.0801407 0 0 2.82197 0 0 
296 1 296 0.460176 0.819964 0 0 -0.114569 -0.0450748 -0.0511668 0.0469092 0 0 2.87126 0 0 
297 1 297 0.460195 0.859965 0 0 -0.0871215 -0.0317259 -0.0380871 0.0138043 0 0 2.75109 0 0 
298 1 298 0.460199 0.899966 0 0 -0.0903178 -0.0460615 -0.043707 -0.00312763 0 0 2.39226 0 0 
299 1 299 0.460197 0.939968 0 0 -0.120767 -0.0236494 -0.0462853 -0.00463459 0 0 1.79039 0 0 
300 1 300 0.460193 0.979978 0 0 -0.150957 0.0239024 -0.0407166 0.00250595 0 0 0.518995 0 0 
301 1 301 0.499989 0.0200017 0 0 0.00501893 0.0171463 0.00710365 -0.0493011 0 0 -0.297994 0 0 
302 1 302 0.499964 0.060004 0 0 0.00755699 0.0231898 0.00985826 -0.0650218 0 0 -0.386325 0 0 
303 1 303 0.499938 0.100004 0 0 -0.00486662 -0.021214 -0.00834999 -0.0620445 0 0 0.815245 0 0 
304 1 304 0.499915 0.140001 0 0 -0.00208149 -0.0281791 -0.00969052 -0.0554654 0 0 1.79649 0 0 
305 1 305 0.499895 0.179994 0 0 -0.024716 -0.05922 -0.0268938 -0.0526018 0 0 2.6983 0 0 
306 1 306 0.49988 0.219986 0 0 -0.0617551 -0.0815028 -0.0459106 -0.0416212 0 0 2.92221 0 0 
307 1 307 0.499864 0.259981 0 0 -0.0943725 -0.0609127 -0.0497669 -0.0574348 0 0 2.5857 0 0 
308 1 308 0.499843 0.299976 0 0 -0.149388 -0.112117 -0.0838368 -0.0659459 0 0 1.67415 0 0 
309 1 309 0.499818 0.33997 0 0 -0.149979 -0.102108 -0.0808151 -0.0736896 0 0 0.73486 0 0 
310 1 310 0.499797 0.379962 0 0 -0.181235 -0.153014 -0.107179 -0.062627 0 0 -0.0343057 0 0 
311 1 311 0.49979 0.419951 0 0 -0.207015 -0.16622 -0.119695 -0.0305765 0 0 -0.958068 0 0 
312 1 312 0.499801 0.45994 0 0 -0.22243 -0.165041 -0.12427 -0.0023747 0 0 -0.368311 0 0 
313 1 313 0.499826 0.499933 0 0 -0.233987 -0.158213 -0.125788 0.0215863 0 0 0.771485 0 0 
314 1 314 0.499857 0.539926 0 0 -0.242453 -0.13802 -0.12202 0.0196287 0 0 1.674 0 0 
315 1 315 0.499885 0.579925 0 0 -0.237896 -0.114043 -0.112858 0.0236346 0 0 1.52404 0 0 
316 1 316 0.499914 0.619926 0 0 -0.209293 -0.0802937 -0.0928481 0.0282127 0 0 1.59277 0 0 
317 1 317 0.499949 0.65993 0 0 -0.17485 -0.0439925 -0.0701513 0.0544538 0 0 1.03788 0 0 
318 1 318 0.499998 0.699936 0 0 -0.173994 -0.0539479 -0.0730695 0.0834968 0 0 1.07795 0 0 
319 1 319 0.500055 0.739942 0 0 -0.155022 -0.0226289 -0.0569394 0.087962 0 0 2.17492 0 0 
320 1 320 0.500111 0.779949 0 0 -0.15787 -0.0412185 -0.0638162 0.0853093 0 0 2.37323 0 0 
321 1 321 0.500156 0.819955 0 0 -0.149151 -0.0293836 -0.057224 0.0469101 0 0 3.07302 0 0 
322 1 322 0.500179 0.85996 0 0 -0.133537 -0.0327762 -0.0533059 0.0140979 0 0 3.19393 0 0 
323 1 323 0.500185 0.899964 0 0 -0.124346 -0.0429222 -0.0536116 -0.0112705 0 0 3.06157 0 0 
324 1 324 0.500176 0.939969 0 0 -0.148875 -0.024543 -0.0555855 -0.0306896 0 0 2.88446 0 0 
325 1 325 0.500164 0.979981 0 0 -0.173392 0.0251445 -0.0475114 -0.0147454 0 0 1.81177 0 0 
326 1 326 0.539988 0.0199999 0 0 -0.023133 -0.0175063 -0.0130198 -0.055025 0 0 0.797697 0 0 
327 1 327 0.539963 0.0600003 0 0 -0.0260739 0.00164791 -0.00781997 -0.063726 0 0 1.78245 0 0 