ITEM: TIMESTEP
0
ITEM: NUMBER OF ATOMS
7127
ITEM: BOX BOUNDS sm sm sm
0 4
0 2
0 0
ITEM: ATOMS id type tag x y z vx 
0 1 0 0 0 0 0 
1 1 1 0 0.04 0 0 
2 1 2 0 0.08 0 0 
3 1 3 0 0.12 0 0 
4 1 4 0 0.16 0 0 
5 1 5 0 0.2 0 0 
6 1 6 0 0.24 0 0 
7 1 7 0 0.28 0 0 
8 1 8 0 0.32 0 0 
9 1 9 0 0.36 0 0 
10 1 10 0 0.4 0 0 
11 1 11 0 0.44 0 0 
12 1 12 0 0.48 0 0 
13 1 13 0 0.52 0 0 
14 1 14 0 0.56 0 0 
15 1 15 0 0.6 0 0 
16 1 16 0 0.64 0 0 
17 1 17 0 0.68 0 0 
18 1 18 0 0.72 0 0 
19 1 19 0 0.76 0 0 
20 1 20 0 0.8 0 0 
21 1 21 0 0.84 0 0 
22 1 22 0 0.88 0 0 
23 1 23 0 0.92 0 0 
24 1 24 0 0.96 0 0 
25 1 25 0 1 0 0 
26 1 26 0.04 0 0 0 
27 1 27 0.0399929 0.0399925 0 -0.00183176 
28 1 28 0.0399901 0.0799886 0 0.0255667 
29 1 29 0.0399899 0.119985 0 0.0505537 
30 1 30 0.0399883 0.159985 0 -0.00319141 
31 1 31 0.039986 0.199986 0 -0.000266097 
32 1 32 0.039983 0.239989 0 0.0559603 
33 1 33 0.039981 0.279992 0 0.126 
34 1 34 0.039978 0.319996 0 0.224748 
35 1 35 0.0399759 0.359999 0 0.291638 
36 1 36 0.0399728 0.400002 0 0.376057 
37 1 37 0.0399709 0.440004 0 0.391729 
38 1 38 0.0399686 0.480005 0 0.405009 
39 1 39 0.0399684 0.520006 0 0.38474 
40 1 40 0.0399676 0.560007 0 0.329294 
41 1 41 0.0399687 0.600008 0 0.198402 
42 1 42 0.0399689 0.640008 0 0.0819739 
43 1 43 0.0399704 0.680009 0 -0.0264882 
44 1 44 0.0399712 0.720009 0 -0.0375207 
45 1 45 0.0399697 0.760013 0 -0.0118808 
46 1 46 0.0399713 0.800017 0 0.0157331 
47 1 47 0.0399693 0.840024 0 -0.0959213 
48 1 48 0.0399766 0.880029 0 -0.13442 
49 1 49 0.039971 0.920038 0 -0.0697912 
50 1 50 0.0399736 0.960042 0 -0.418436 
51 1 51 0.039947 1.00007 0 -0.641137 
52 1 52 0.08 0 0 0 
53 1 53 0.0799893 0.0399909 0 0.0885317 
54 1 54 0.0799831 0.0799845 0 0.0248504 
55 1 55 0.0799814 0.119981 0 -0.0824666 
56 1 56 0.0799758 0.159979 0 -0.093704 
57 1 57 0.0799698 0.199981 0 0.0807946 
58 1 58 0.0799647 0.239983 0 0.253284 
59 1 59 0.0799584 0.279988 0 0.378251 
60 1 60 0.0799548 0.319991 0 0.523884 
61 1 61 0.0799487 0.359997 0 0.604767 
62 1 62 0.0799456 0.4 0 0.688046 
63 1 63 0.0799397 0.440006 0 0.703885 
64 1 64 0.0799387 0.480008 0 0.744667 
65 1 65 0.0799343 0.520013 0 0.728125 
66 1 66 0.079937 0.560014 0 0.651283 
67 1 67 0.0799357 0.600017 0 0.456148 
68 1 68 0.0799405 0.640017 0 0.225004 
69 1 69 0.0799368 0.680021 0 0.0113365 
70 1 70 0.0799411 0.72002 0 -0.119704 
71 1 71 0.0799366 0.760027 0 -0.10378 
72 1 72 0.079939 0.800031 0 -0.100756 
73 1 73 0.0799376 0.84004 0 -0.155224 
74 1 74 0.0799418 0.88005 0 -0.338406 
75 1 75 0.0799461 0.920057 0 -0.467351 
76 1 76 0.0799332 0.960076 0 -0.729971 
77 1 77 0.079926 1.00008 0 -0.93528 
78 1 78 0.12 0 0 0 
79 1 79 0.119985 0.0399904 0 0.226491 
80 1 80 0.119977 0.0799849 0 0.0311205 
81 1 81 0.119971 0.11998 0 -0.176523 
82 1 82 0.119963 0.159979 0 -0.114567 
83 1 83 0.119955 0.199979 0 0.146472 
84 1 84 0.119947 0.23998 0 0.382444 
85 1 85 0.119938 0.279983 0 0.578166 
86 1 86 0.119931 0.319986 0 0.786229 
87 1 87 0.119922 0.35999 0 0.915999 
88 1 88 0.119916 0.399995 0 0.980063 
89 1 89 0.119909 0.440001 0 0.99828 
90 1 90 0.119906 0.480007 0 1.05687 
91 1 91 0.119902 0.520012 0 1.0645 
92 1 92 0.119903 0.560018 0 0.980971 
93 1 93 0.119903 0.600021 0 0.732483 
94 1 94 0.119906 0.640026 0 0.372168 
95 1 95 0.119909 0.680028 0 0.0543754 
96 1 96 0.119909 0.720034 0 -0.191112 
97 1 97 0.119907 0.760037 0 -0.24886 
98 1 98 0.119905 0.800044 0 -0.239291 
99 1 99 0.119907 0.840049 0 -0.239647 
100 1 100 0.119911 0.88006 0 -0.515818 
101 1 101 0.119912 0.920072 0 -0.857138 
102 1 102 0.119908 0.960078 0 -0.999013 
103 1 103 0.119897 1.0001 0 -1.05862 
104 1 104 0.16 0 0 0 
105 1 105 0.159981 0.0399907 0 0.278673 
106 1 106 0.159969 0.0799835 0 0.0590176 
107 1 107 0.159961 0.119979 0 -0.165117 
108 1 108 0.159951 0.159976 0 -0.10715 
109 1 109 0.15994 0.199975 0 0.18171 
110 1 110 0.159928 0.239974 0 0.484853 
111 1 111 0.159917 0.279976 0 0.752972 
112 1 112 0.159908 0.319978 0 1.00589 
113 1 113 0.159897 0.359982 0 1.18131 
114 1 114 0.159887 0.399987 0 1.24918 
115 1 115 0.159878 0.439993 0 1.27458 
116 1 116 0.159872 0.48 0 1.33391 
117 1 117 0.159868 0.520007 0 1.33799 
118 1 118 0.159869 0.560012 0 1.25839 
119 1 119 0.159871 0.600019 0 0.95684 
120 1 120 0.159874 0.640023 0 0.498109 
121 1 121 0.159873 0.680029 0 0.0788873 
122 1 122 0.159874 0.720032 0 -0.224202 
123 1 123 0.159872 0.760041 0 -0.355518 
124 1 124 0.159872 0.800047 0 -0.4059 
125 1 125 0.159873 0.840057 0 -0.419048 
126 1 126 0.159877 0.880065 0 -0.72505 
127 1 127 0.159883 0.920075 0 -1.06938 
128 1 128 0.159877 0.96009 0 -1.13617 
129 1 129 0.159866 1.0001 0 -1.14554 
130 1 130 0.2 0 0 0 
131 1 131 0.199976 0.0399892 0 0.248154 
132 1 132 0.199962 0.0799812 0 0.0696708 
133 1 133 0.19995 0.119977 0 -0.116601 
134 1 134 0.199938 0.159972 0 0.00931468 
135 1 135 0.199923 0.199969 0 0.400504 
136 1 136 0.19991 0.239966 0 0.744894 
137 1 137 0.199897 0.279966 0 1.02981 
138 1 138 0.199885 0.319966 0 1.28087 
139 1 139 0.199871 0.359969 0 1.42332 
140 1 140 0.19986 0.399973 0 1.44914 
141 1 141 0.199848 0.439979 0 1.42404 
142 1 142 0.199841 0.479985 0 1.44977 
143 1 143 0.199836 0.519993 0 1.41 
144 1 144 0.199836 0.559998 0 1.30902 
145 1 145 0.199834 0.600006 0 1.02064 
146 1 146 0.199838 0.640013 0 0.557913 
147 1 147 0.19984 0.680021 0 0.107648 
148 1 148 0.199841 0.72003 0 -0.240903 
149 1 149 0.199837 0.760038 0 -0.383092 
150 1 150 0.199838 0.800048 0 -0.447161 
151 1 151 0.19984 0.840057 0 -0.506645 
152 1 152 0.199845 0.880069 0 -0.896443 
153 1 153 0.19985 0.92008 0 -1.24846 
154 1 154 0.199847 0.960092 0 -1.28039 
155 1 155 0.199842 1.00011 0 -1.30629 
156 1 156 0.24 0 0 0 
157 1 157 0.239972 0.039989 0 0.132835 
158 1 158 0.239954 0.0799792 0 0.0295205 
159 1 159 0.239938 0.119972 0 0.0109149 
160 1 160 0.239923 0.159966 0 0.286741 
161 1 161 0.239908 0.19996 0 0.72379 
162 1 162 0.239893 0.239956 0 1.04005 
163 1 163 0.239877 0.279952 0 1.30498 
164 1 164 0.239863 0.31995 0 1.51448 
165 1 165 0.239847 0.359951 0 1.59054 
166 1 166 0.239832 0.399954 0 1.56683 
167 1 167 0.239818 0.439959 0 1.45538 
168 1 168 0.23981 0.479964 0 1.39108 
169 1 169 0.239802 0.519972 0 1.32049 
170 1 170 0.239801 0.559977 0 1.20743 
171 1 171 0.239801 0.599985 0 0.972598 
172 1 172 0.239802 0.639994 0 0.559089 
173 1 173 0.239798 0.680004 0 0.129391 
174 1 174 0.239797 0.720017 0 -0.235185 
175 1 175 0.239796 0.76003 0 -0.4546 
176 1 176 0.239798 0.800041 0 -0.54307 
177 1 177 0.239801 0.840055 0 -0.615778 
178 1 178 0.239808 0.880065 0 -1.04238 
179 1 179 0.239817 0.920081 0 -1.39711 
180 1 180 0.239816 0.960093 0 -1.3725 
181 1 181 0.239811 1.00011 0 -1.35276 
182 1 182 0.28 0 0 0 
183 1 183 0.279969 0.0399882 0 0.0508622 
184 1 184 0.279947 0.0799764 0 0.0827908 
185 1 185 0.279927 0.119967 0 0.244932 
186 1 186 0.27991 0.159959 0 0.593376 
187 1 187 0.279891 0.19995 0 0.983807 
188 1 188 0.279874 0.239943 0 1.25921 
189 1 189 0.279857 0.279935 0 1.50445 
190 1 190 0.27984 0.319931 0 1.64829 
191 1 191 0.279821 0.359929 0 1.64863 
192 1 192 0.279805 0.39993 0 1.58355 
193 1 193 0.279789 0.439934 0 1.41104 
194 1 194 0.279779 0.479937 0 1.26028 
195 1 195 0.279771 0.519944 0 1.17553 
196 1 196 0.279767 0.55995 0 1.04929 
197 1 197 0.279761 0.59996 0 0.837153 
198 1 198 0.279759 0.639971 0 0.46853 
199 1 199 0.279758 0.679985 0 0.0599284 
200 1 200 0.279757 0.720001 0 -0.26172 
201 1 201 0.279754 0.760018 0 -0.526668 
202 1 202 0.279758 0.800033 0 -0.73652 
203 1 203 0.279765 0.840048 0 -0.864737 
204 1 204 0.279771 0.880061 0 -1.23562 
205 1 205 0.27978 0.920076 0 -1.5399 
206 1 206 0.279785 0.96009 0 -1.4116 
207 1 207 0.279787 1.0001 0 -1.2881 
208 1 208 0.32 0 0 0 
209 1 209 0.319966 0.0399861 0 -0.0361542 
210 1 210 0.319941 0.0799722 0 0.145685 
211 1 211 0.319916 0.11996 0 0.464367 
212 1 212 0.319896 0.159949 0 0.845908 
213 1 213 0.319875 0.199937 0 1.18466 
214 1 214 0.319857 0.239927 0 1.42074 
215 1 215 0.319836 0.279917 0 1.58103 
216 1 216 0.319817 0.319911 0 1.61691 
217 1 217 0.319796 0.359907 0 1.56171 
218 1 218 0.319776 0.399906 0 1.4657 
219 1 219 0.319758 0.439907 0 1.2669 
220 1 220 0.319746 0.47991 0 1.05026 
221 1 221 0.319736 0.519915 0 0.931454 
222 1 222 0.31973 0.559921 0 0.793474 
223 1 223 0.319725 0.59993 0 0.660246 
224 1 224 0.319718 0.639943 0 0.414195 
225 1 225 0.319708 0.679959 0 -0.00433915 
226 1 226 0.319704 0.719978 0 -0.395624 
227 1 227 0.319705 0.759997 0 -0.698913 
228 1 228 0.31971 0.800016 0 -0.973476 
229 1 229 0.319718 0.840034 0 -1.1787 
230 1 230 0.319729 0.880048 0 -1.46155 
231 1 231 0.319741 0.920067 0 -1.66141 
232 1 232 0.319751 0.96008 0 -1.38909 
233 1 233 0.319757 1.0001 0 -1.12101 
234 1 234 0.36 0 0 0 
235 1 235 0.359965 0.0399829 0 -0.0772373 
236 1 236 0.359934 0.0799661 0 0.192492 
237 1 237 0.359905 0.119951 0 0.580472 
238 1 238 0.359883 0.159937 0 0.947836 
239 1 239 0.359859 0.199923 0 1.20258 
240 1 240 0.359839 0.239911 0 1.3656 
241 1 241 0.359816 0.279899 0 1.4339 
242 1 242 0.359792 0.319891 0 1.42975 
243 1 243 0.359768 0.359885 0 1.40883 
244 1 244 0.359746 0.399882 0 1.32497 
245 1 245 0.359725 0.439881 0 1.1563 
246 1 246 0.359712 0.479882 0 0.924769 
247 1 247 0.359701 0.519885 0 0.75545 
248 1 248 0.359692 0.55989 0 0.593056 
249 1 249 0.359679 0.5999 0 0.474368 
250 1 250 0.35967 0.639913 0 0.275044 
251 1 251 0.359663 0.679933 0 -0.115586 
252 1 252 0.35966 0.719953 0 -0.575896 
253 1 253 0.359657 0.759975 0 -0.982813 
254 1 254 0.359665 0.799994 0 -1.28223 
255 1 255 0.359676 0.840014 0 -1.49286 
256 1 256 0.359687 0.880031 0 -1.65494 
257 1 257 0.359698 0.92005 0 -1.71089 
258 1 258 0.359715 0.960067 0 -1.29764 
259 1 259 0.359729 1.00008 0 -0.903085 
260 1 260 0.4 0 0 0 
261 1 261 0.399963 0.0399784 0 -0.0236882 
262 1 262 0.399929 0.079958 0 0.269498 
263 1 263 0.399896 0.119939 0 0.628949 
264 1 264 0.399869 0.159923 0 0.924839 
265 1 265 0.399843 0.199907 0 1.07924 
266 1 266 0.39982 0.239894 0 1.20212 
267 1 267 0.399793 0.279882 0 1.24047 
268 1 268 0.399767 0.319873 0 1.21962 
269 1 269 0.399739 0.359866 0 1.21963 
270 1 270 0.399714 0.399861 0 1.16466 
271 1 271 0.399691 0.439858 0 1.03621 
272 1 272 0.399676 0.479856 0 0.802901 
273 1 273 0.399661 0.519857 0 0.588176 
274 1 274 0.39965 0.559861 0 0.411422 
275 1 275 0.399639 0.599869 0 0.316751 
276 1 276 0.399625 0.639881 0 0.086827 
277 1 277 0.399609 0.679899 0 -0.272729 
278 1 278 0.399601 0.71992 0 -0.684488 
279 1 279 0.399603 0.759943 0 -1.15828 
280 1 280 0.399612 0.799965 0 -1.48635 
281 1 281 0.399623 0.839987 0 -1.68433 
282 1 282 0.399638 0.880007 0 -1.71109 
283 1 283 0.399653 0.920028 0 -1.62943 
284 1 284 0.399675 0.960045 0 -1.13687 
285 1 285 0.399692 1.00006 0 -0.662674 
286 1 286 0.44 0 0 0 
287 1 287 0.439961 0.0399734 0 0.00852911 
288 1 288 0.439922 0.0799501 0 0.266534 
289 1 289 0.439886 0.119928 0 0.591241 
290 1 290 0.439857 0.159909 0 0.864531 
291 1 291 0.439828 0.199892 0 0.972803 
292 1 292 0.439801 0.239877 0 1.07549 
293 1 293 0.439771 0.279865 0 1.06135 
294 1 294 0.439741 0.319855 0 1.02128 
295 1 295 0.439709 0.359848 0 1.03849 
296 1 296 0.439682 0.399841 0 1.00957 
297 1 297 0.439656 0.439835 0 0.94097 
298 1 298 0.439638 0.479831 0 0.72916 
299 1 299 0.439624 0.519829 0 0.504149 
300 1 300 0.439609 0.559831 0 0.291855 
301 1 301 0.43959 0.599839 0 0.201846 
302 1 302 0.439574 0.639852 0 -0.0130633 
303 1 303 0.439564 0.67987 0 -0.368128 
304 1 304 0.439557 0.719889 0 -0.763179 
305 1 305 0.439554 0.759912 0 -1.23961 
306 1 306 0.439563 0.799934 0 -1.51368 
307 1 307 0.439576 0.839957 0 -1.67416 
308 1 308 0.43959 0.879978 0 -1.5951 
309 1 309 0.439603 0.92 0 -1.42147 
310 1 310 0.43963 0.960022 0 -0.969549 
311 1 311 0.439655 1.00004 0 -0.506903 
312 1 312 0.48 0 0 0 
313 1 313 0.479957 0.0399689 0 0.137157 
314 1 314 0.479916 0.0799428 0 0.367023 
315 1 315 0.479877 0.119918 0 0.612798 
316 1 316 0.479844 0.159897 0 0.83818 
317 1 317 0.479812 0.199878 0 0.910805 
318 1 318 0.479782 0.239863 0 1.00364 
319 1 319 0.479747 0.27985 0 0.953088 
320 1 320 0.479715 0.319839 0 0.918462 
321 1 321 0.479679 0.35983 0 0.962254 
322 1 322 0.47965 0.399822 0 0.957439 
323 1 323 0.479623 0.439813 0 0.962119 
324 1 324 0.479602 0.479807 0 0.760456 
325 1 325 0.479582 0.519803 0 0.48267 
326 1 326 0.479565 0.559804 0 0.230989 
327 1 327 0.47955 0.59981 0 0.140966 
328 1 328 0.47953 0.63982 0 -0.0183082 
329 1 329 0.479509 0.679835 0 -0.318046 
330 1 330 0.479498 0.719853 0 -0.705699 
331 1 331 0.479499 0.759875 0 -1.18173 
332 1 332 0.479507 0.799898 0 -1.40878 
333 1 333 0.479516 0.839922 0 -1.5493 
334 1 334 0.479536 0.879945 0 -1.36682 
335 1 335 0.479553 0.919968 0 -1.0832 
336 1 336 0.47958 0.959991 0 -0.72242 
337 1 337 0.479606 1.00002 0 -0.338944 
338 1 338 0.52 0 0 0 
339 1 339 0.519952 0.0399657 0 0.260598 
340 1 340 0.519907 0.0799376 0 0.480268 
341 1 341 0.519866 0.119911 0 0.690735 
342 1 342 0.519831 0.159888 0 0.92323 
343 1 343 0.519796 0.199868 0 1.01093 
344 1 344 0.519762 0.239851 0 1.10288 
345 1 345 0.519725 0.279836 0 1.03521 
346 1 346 0.519689 0.319823 0 0.971085 
347 1 347 0.519651 0.359811 0 0.956393 
348 1 348 0.51962 0.3998 0 0.94185 
349 1 349 0.519589 0.439789 0 0.952422 
350 1 350 0.519566 0.479781 0 0.734865 
351 1 351 0.519544 0.519776 0 0.486357 
352 1 352 0.519523 0.559776 0 0.257476 
353 1 353 0.519498 0.599782 0 0.124575 
354 1 354 0.519479 0.639793 0 -0.0550614 
355 1 355 0.519467 0.679808 0 -0.287998 
356 1 356 0.519457 0.719824 0 -0.576864 
357 1 357 0.519451 0.759843 0 -0.981665 
358 1 358 0.519457 0.799864 0 -1.13605 
359 1 359 0.519468 0.839887 0 -1.25129 
360 1 360 0.519483 0.87991 0 -1.03728 
361 1 361 0.519496 0.919935 0 -0.727691 
362 1 362 0.519526 0.95996 0 -0.540926 
363 1 363 0.519557 0.999986 0 -0.300404 
364 1 364 0.56 0 0 0 
365 1 365 0.559946 0.0399641 0 0.329004 
366 1 366 0.559898 0.0799339 0 0.561841 
367 1 367 0.559855 0.119906 0 0.788601 
368 1 368 0.559817 0.159881 0 1.06542 
369 1 369 0.55978 0.199859 0 1.20828 
370 1 370 0.559743 0.23984 0 1.29856 
371 1 371 0.559702 0.279823 0 1.20238 
372 1 372 0.559664 0.319808 0 1.09307 
373 1 373 0.559624 0.359794 0 0.988365 
374 1 374 0.559591 0.399779 0 0.937863 
375 1 375 0.559558 0.439767 0 0.920703 
376 1 376 0.55953 0.479757 0 0.685785 
377 1 377 0.559501 0.519751 0 0.483993 
378 1 378 0.559477 0.559752 0 0.271847 
379 1 379 0.559458 0.599756 0 0.117696 
380 1 380 0.559436 0.639763 0 -0.000236022 
381 1 381 0.559412 0.679774 0 -0.156461 
382 1 382 0.559398 0.719788 0 -0.386906 
383 1 383 0.559396 0.759805 0 -0.741864 
384 1 384 0.5594 0.799825 0 -0.887339 
385 1 385 0.559405 0.839848 0 -0.996011 
386 1 386 0.559423 0.879873 0 -0.771786 
387 1 387 0.55944 0.919898 0 -0.447485 
388 1 388 0.559467 0.959925 0 -0.365866 
389 1 389 0.559496 0.999954 0 -0.231679 
390 1 390 0.6 0 0 0 
391 1 391 0.599941 0.0399635 0 0.403522 
392 1 392 0.599888 0.0799316 0 0.685707 
393 1 393 0.599843 0.119902 0 0.91674 
394 1 394 0.599803 0.159876 0 1.18016 
395 1 395 0.599762 0.199852 0 1.35092 
396 1 396 0.599722 0.23983 0 1.4441 
397 1 397 0.599679 0.279811 0 1.33935 
398 1 398 0.599638 0.319793 0 1.19604 
399 1 399 0.599597 0.359775 0 1.02013 
400 1 400 0.599563 0.399758 0 0.911216 
401 1 401 0.599526 0.439744 0 0.841867 
402 1 402 0.599493 0.479733 0 0.614878 
403 1 403 0.599463 0.519727 0 0.423707 
404 1 404 0.599434 0.559726 0 0.214951 
405 1 405 0.599404 0.59973 0 0.0884875 
406 1 406 0.599382 0.639738 0 0.0608028 
407 1 407 0.59937 0.679748 0 -0.0338181 
408 1 408 0.599358 0.719758 0 -0.201872 
409 1 409 0.599347 0.759772 0 -0.460878 
410 1 410 0.599348 0.799789 0 -0.606 
411 1 411 0.599353 0.839811 0 -0.706248 
412 1 412 0.599366 0.879835 0 -0.486804 
413 1 413 0.599377 0.919862 0 -0.198059 
414 1 414 0.599404 0.959891 0 -0.246349 
415 1 415 0.599435 0.999921 0 -0.235397 
416 1 416 0.64 0 0 0 
417 1 417 0.639935 0.0399635 0 0.394532 
418 1 418 0.63988 0.0799296 0 0.678558 
419 1 419 0.639832 0.119899 0 0.907149 
420 1 420 0.639787 0.159871 0 1.18458 
421 1 421 0.639743 0.199845 0 1.39066 
422 1 422 0.6397 0.239822 0 1.46264 
423 1 423 0.639654 0.2798 0 1.35937 
424 1 424 0.639612 0.319779 0 1.18586 
425 1 425 0.63957 0.35976 0 0.92589 
426 1 426 0.639532 0.399742 0 0.747808 
427 1 427 0.639493 0.439726 0 0.631535 
428 1 428 0.639456 0.479713 0 0.455367 
429 1 429 0.639417 0.519707 0 0.307897 
430 1 430 0.639385 0.559705 0 0.156314 
431 1 431 0.639361 0.599705 0 0.0867559 
432 1 432 0.639338 0.639708 0 0.0899104 
433 1 433 0.639312 0.679713 0 0.0279269 
434 1 434 0.639296 0.719721 0 -0.00509656 
435 1 435 0.639289 0.759732 0 -0.113913 
436 1 436 0.639286 0.799749 0 -0.28532 
437 1 437 0.639284 0.83977 0 -0.406115 
438 1 438 0.639297 0.879796 0 -0.283498 
439 1 439 0.639313 0.919825 0 -0.0926775 
440 1 440 0.639336 0.959856 0 -0.177472 
441 1 441 0.639363 0.999889 0 -0.219774 
442 1 442 0.68 0 0 0 
443 1 443 0.679934 0.0399634 0 0.381675 
444 1 444 0.679873 0.0799281 0 0.632651 
445 1 445 0.67982 0.119896 0 0.792917 
446 1 446 0.679771 0.159866 0 1.00293 
447 1 447 0.679723 0.19984 0 1.19403 
448 1 448 0.679676 0.239815 0 1.24939 
449 1 449 0.679629 0.279791 0 1.18556 
450 1 450 0.679584 0.319768 0 1.03613 
451 1 451 0.67954 0.359746 0 0.763094 
452 1 452 0.679501 0.399726 0 0.562064 
453 1 453 0.679458 0.439709 0 0.417675 
454 1 454 0.679416 0.479696 0 0.314641 
455 1 455 0.679377 0.519687 0 0.274033 
456 1 456 0.679341 0.559682 0 0.261284 
457 1 457 0.679305 0.599681 0 0.232843 
458 1 458 0.679282 0.639684 0 0.256461 
459 1 459 0.679268 0.679686 0 0.293038 
460 1 460 0.679254 0.719691 0 0.366471 
461 1 461 0.679235 0.759699 0 0.298979 
462 1 462 0.679229 0.799714 0 0.048744 
463 1 463 0.679227 0.839733 0 -0.0907354 
464 1 464 0.679231 0.87976 0 -0.077922 
465 1 465 0.67924 0.91979 0 0.0165931 
466 1 466 0.679263 0.959823 0 -0.0795623 
467 1 467 0.67929 0.999859 0 -0.170311 
468 1 468 0.72 0 0 0 
469 1 469 0.71993 0.0399635 0 0.313171 
470 1 470 0.719867 0.0799271 0 0.50212 
471 1 471 0.719809 0.119894 0 0.598786 
472 1 472 0.719754 0.159863 0 0.723836 
473 1 473 0.719702 0.199835 0 0.862956 
474 1 474 0.719652 0.239809 0 0.913945 
475 1 475 0.719601 0.279783 0 0.921655 
476 1 476 0.719555 0.319759 0 0.837891 
477 1 477 0.719509 0.359736 0 0.620666 
478 1 478 0.719465 0.399715 0 0.445715 
479 1 479 0.719422 0.439697 0 0.323314 
480 1 480 0.719378 0.479682 0 0.325197 
481 1 481 0.719329 0.519672 0 0.349864 
482 1 482 0.719291 0.559665 0 0.416318 
483 1 483 0.719263 0.599659 0 0.422816 
484 1 484 0.719237 0.639655 0 0.48667 
485 1 485 0.719206 0.679652 0 0.578222 
486 1 486 0.719187 0.719655 0 0.683506 
487 1 487 0.719171 0.759662 0 0.675278 
488 1 488 0.71916 0.799676 0 0.418582 
489 1 489 0.71915 0.839697 0 0.284036 
490 1 490 0.719154 0.879724 0 0.180616 
491 1 491 0.719166 0.919756 0 0.151232 
492 1 492 0.719184 0.959792 0 0.000149642 
493 1 493 0.719205 0.999832 0 -0.158215 
494 1 494 0.76 0 0 0 
495 1 495 0.75993 0.039963 0 0.186941 
496 1 496 0.759861 0.0799261 0 0.302555 
497 1 497 0.759797 0.119893 0 0.37381 
498 1 498 0.759738 0.159861 0 0.452562 
499 1 499 0.75968 0.199832 0 0.553722 
500 1 500 0.759625 0.239805 0 0.622098 
501 1 501 0.759573 0.279778 0 0.720808 
502 1 502 0.759524 0.319752 0 0.712858 
503 1 503 0.759477 0.359727 0 0.565167 
504 1 504 0.759432 0.399704 0 0.437826 
505 1 505 0.759385 0.439685 0 0.35282 
506 1 506 0.759336 0.47967 0 0.449723 
507 1 507 0.759291 0.519657 0 0.556585 
508 1 508 0.75925 0.559646 0 0.726019 
509 1 509 0.759208 0.599638 0 0.754535 
510 1 510 0.759182 0.639633 0 0.804561 
511 1 511 0.759163 0.67963 0 0.89087 
512 1 512 0.759145 0.71963 0 1.01568 
513 1 513 0.759115 0.759634 0 1.09411 
514 1 514 0.759099 0.799646 0 0.831036 
515 1 515 0.759088 0.839666 0 0.629185 
516 1 516 0.75908 0.879694 0 0.386394 
517 1 517 0.759083 0.919728 0 0.276235 
518 1 518 0.7591 0.959766 0 0.13134 
519 1 519 0.759122 0.999808 0 -0.0502132 
520 1 520 0.8 0 0 0 
521 1 521 0.799925 0.0399622 0 0.0447382 
522 1 522 0.799854 0.079925 0 0.133311 
523 1 523 0.799784 0.119891 0 0.216897 
524 1 524 0.799719 0.15986 0 0.235021 
525 1 525 0.799657 0.19983 0 0.310611 
526 1 526 0.7996 0.239802 0 0.452025 
527 1 527 0.799545 0.279774 0 0.668247 
528 1 528 0.799494 0.319747 0 0.778015 
529 1 529 0.799446 0.359721 0 0.751809 
530 1 530 0.799396 0.399698 0 0.656047 
531 1 531 0.799349 0.439677 0 0.552214 
532 1 532 0.799299 0.47966 0 0.70745 
533 1 533 0.799247 0.519644 0 0.86425 
534 1 534 0.799205 0.559631 0 1.05596 
535 1 535 0.799171 0.599619 0 1.05826 
536 1 536 0.799141 0.639608 0 1.07493 
537 1 537 0.799102 0.679601 0 1.12828 
538 1 538 0.799075 0.719599 0 1.23778 
539 1 539 0.79905 0.759604 0 1.35161 
540 1 540 0.799027 0.799617 0 1.08584 
541 1 541 0.799005 0.839637 0 0.879285 
542 1 542 0.798997 0.879666 0 0.603238 
543 1 543 0.799001 0.919701 0 0.44743 
544 1 544 0.799009 0.959743 0 0.295407 
545 1 545 0.799024 0.999788 0 0.107561 
546 1 546 0.84 0 0 0 
547 1 547 0.839922 0.03996 0 -0.122971 
548 1 548 0.839845 0.0799234 0 -0.0284383 
549 1 549 0.839769 0.11989 0 0.140137 
550 1 550 0.839701 0.159858 0 0.190703 
551 1 551 0.839634 0.199827 0 0.288251 
552 1 552 0.839574 0.239798 0 0.482818 
553 1 553 0.839518 0.279769 0 0.778755 
554 1 554 0.839465 0.319741 0 0.990126 
555 1 555 0.839414 0.359714 0 1.06501 
556 1 556 0.839364 0.399689 0 1.00639 
557 1 557 0.839313 0.439667 0 0.887229 
558 1 558 0.83926 0.479649 0 1.01695 
559 1 559 0.839212 0.519631 0 1.12886 
560 1 560 0.839168 0.559615 0 1.26189 
561 1 561 0.83912 0.5996 0 1.1939 
562 1 562 0.839089 0.639591 0 1.1671 
563 1 563 0.839062 0.679584 0 1.2115 
564 1 564 0.839035 0.719581 0 1.33724 
565 1 565 0.838995 0.759585 0 1.49948 
566 1 566 0.838965 0.799596 0 1.29382 
567 1 567 0.838941 0.839615 0 1.1352 
568 1 568 0.838919 0.879645 0 0.872611 
569 1 569 0.83891 0.919681 0 0.680935 
570 1 570 0.838915 0.959724 0 0.49114 
571 1 571 0.83893 0.999771 0 0.295037 
572 1 572 0.88 0 0 0 
573 1 573 0.879914 0.0399587 0 -0.179059 
574 1 574 0.879834 0.0799214 0 -0.0655499 
575 1 575 0.879755 0.119887 0 0.157684 
576 1 576 0.879681 0.159854 0 0.250241 
577 1 577 0.879612 0.199823 0 0.36108 
578 1 578 0.879549 0.239793 0 0.571144 
579 1 579 0.879492 0.279763 0 0.922413 
580 1 580 0.879437 0.319734 0 1.21088 
581 1 581 0.879384 0.359706 0 1.33177 
582 1 582 0.879329 0.399681 0 1.29226 
583 1 583 0.879277 0.439658 0 1.16936 
584 1 584 0.879225 0.479638 0 1.24277 
585 1 585 0.879171 0.519618 0 1.286 
586 1 586 0.879125 0.5596 0 1.34224 
587 1 587 0.879087 0.599583 0 1.22828 
588 1 588 0.87905 0.639568 0 1.17884 
589 1 589 0.879 0.679559 0 1.18144 
590 1 590 0.878962 0.719558 0 1.28131 
591 1 591 0.878927 0.759563 0 1.49529 
592 1 592 0.87889 0.799575 0 1.41314 
593 1 593 0.878853 0.839595 0 1.31558 
594 1 594 0.878831 0.879626 0 1.08511 
595 1 595 0.87882 0.919662 0 0.90416 
596 1 596 0.878815 0.959708 0 0.714653 
597 1 597 0.878822 0.999757 0 0.53873 
598 1 598 0.92 0 0 0 
599 1 599 0.919909 0.0399566 0 -0.131981 
600 1 600 0.919822 0.0799188 0 0.00284874 
601 1 601 0.919739 0.119883 0 0.222524 
602 1 602 0.919664 0.159849 0 0.295139 
603 1 603 0.919591 0.199816 0 0.390998 
604 1 604 0.919526 0.239784 0 0.605041 
605 1 605 0.919468 0.279752 0 0.953099 
606 1 606 0.91941 0.319722 0 1.28158 
607 1 607 0.919354 0.359694 0 1.45589 
608 1 608 0.919299 0.399668 0 1.4378 
609 1 609 0.919242 0.439643 0 1.30192 
610 1 610 0.919187 0.479623 0 1.32651 
611 1 611 0.919139 0.519602 0 1.35891 
612 1 612 0.919091 0.559582 0 1.37473 
613 1 613 0.919037 0.599566 0 1.21367 
614 1 614 0.918994 0.639556 0 1.12431 
615 1 615 0.918958 0.679549 0 1.10731 
616 1 616 0.918919 0.719548 0 1.21554 
617 1 617 0.918868 0.759552 0 1.47915 
618 1 618 0.918824 0.799565 0 1.53038 
619 1 619 0.918785 0.839584 0 1.50387 
620 1 620 0.918748 0.879614 0 1.35849 
621 1 621 0.918722 0.919651 0 1.23806 
622 1 622 0.918713 0.959696 0 1.05668 
623 1 623 0.91872 0.999746 0 0.907502 
624 1 624 0.96 0 0 0 
625 1 625 0.959901 0.0399556 0 0.0469191 
626 1 626 0.959812 0.0799159 0 0.193056 
627 1 627 0.959727 0.119878 0 0.323642 
628 1 628 0.959646 0.159841 0 0.323561 
629 1 629 0.959571 0.199806 0 0.36681 
630 1 630 0.959504 0.239772 0 0.517731 
631 1 631 0.959443 0.279739 0 0.777543 
632 1 632 0.959384 0.319708 0 1.08989 
633 1 633 0.959326 0.359678 0 1.3029 
634 1 634 0.959266 0.399653 0 1.35428 
635 1 635 0.959208 0.439629 0 1.31286 
636 1 636 0.959153 0.479607 0 1.36912 
637 1 637 0.959097 0.519586 0 1.38309 
638 1 638 0.959045 0.559567 0 1.33322 
639 1 639 0.959001 0.599549 0 1.18542 
640 1 640 0.958951 0.639536 0 1.11576 
641 1 641 0.958889 0.679529 0 1.10496 
642 1 642 0.958838 0.71953 0 1.21986 
643 1 643 0.958793 0.759537 0 1.46657 
644 1 644 0.958742 0.799551 0 1.60298 
645 1 645 0.95869 0.839573 0 1.70058 
646 1 646 0.958654 0.879603 0 1.71835 
647 1 647 0.958626 0.91964 0 1.6238 
648 1 648 0.958607 0.959686 0 1.41714 
649 1 649 0.958603 0.999737 0 1.31484 
650 1 650 1 0 0 0 
651 1 651 0.999899 0.0399549 0 0.312469 
652 1 652 0.999804 0.0799134 0 0.419472 
653 1 653 0.999716 0.119872 0 0.383474 
654 1 654 0.999633 0.159833 0 0.282749 
655 1 655 0.999555 0.199795 0 0.250693 
656 1 656 0.999484 0.239757 0 0.336498 
657 1 657 0.999421 0.279722 0 0.504389 
658 1 658 0.999359 0.31969 0 0.749545 
659 1 659 0.999297 0.35966 0 0.948386 
660 1 660 0.999237 0.399634 0 1.0419 
661 1 661 0.999174 0.439609 0 1.09075 
662 1 662 0.999116 0.479588 0 1.22953 
663 1 663 0.999064 0.519567 0 1.34021 
664 1 664 0.99901 0.559548 0 1.36587 
665 1 665 0.998946 0.599534 0 1.33146 
666 1 666 0.998889 0.639527 0 1.30865 
667 1 667 0.998842 0.679523 0 1.28869 
668 1 668 0.998788 0.719526 0 1.33495 
669 1 669 0.998725 0.759534 0 1.50745 
670 1 670 0.998669 0.799549 0 1.7328 
671 1 671 0.998616 0.839569 0 1.91016 
672 1 672 0.998565 0.879598 0 2.02846 
673 1 673 0.998522 0.919635 0 1.98831 
674 1 674 0.998501 0.95968 0 1.87142 
675 1 675 0.998497 0.999731 0 1.88361 
676 1 676 1.04 0 0 0 
677 1 677 1.0399 0.0399556 0 0.584298 
678 1 678 1.0398 0.0799116 0 0.637672 
679 1 679 1.03971 0.119868 0 0.434412 
680 1 680 1.03962 0.159825 0 0.265802 
681 1 681 1.03954 0.199784 0 0.170825 
682 1 682 1.03947 0.239744 0 0.16802 
683 1 683 1.0394 0.279707 0 0.201644 
684 1 684 1.03934 0.319674 0 0.327387 
685 1 685 1.03927 0.359644 0 0.498436 
686 1 686 1.03921 0.399618 0 0.65921 
687 1 687 1.03914 0.439594 0 0.854418 
688 1 688 1.03908 0.479572 0 1.15846 
689 1 689 1.03902 0.519551 0 1.42452 
690 1 690 1.03896 0.559534 0 1.55476 
691 1 691 1.03891 0.599519 0 1.63255 
692 1 692 1.03884 0.639509 0 1.64623 
693 1 693 1.03876 0.679506 0 1.62441 
694 1 694 1.0387 0.719512 0 1.59403 
695 1 695 1.03864 0.759522 0 1.64139 
696 1 696 1.03858 0.79954 0 1.85174 
697 1 697 1.03851 0.839563 0 2.04401 
698 1 698 1.03846 0.879594 0 2.28516 
699 1 699 1.03842 0.919631 0 2.30984 
700 1 700 1.03839 0.959675 0 2.21657 
701 1 701 1.03838 0.999727 0 2.2878 
702 1 702 1.08 0 0 0 
703 1 703 1.0799 0.0399555 0 0.785027 
704 1 704 1.0798 0.07991 0 0.82729 
705 1 705 1.0797 0.119864 0 0.51481 
706 1 706 1.07961 0.159819 0 0.296112 
707 1 707 1.07953 0.199775 0 0.164963 
708 1 708 1.07945 0.239733 0 0.0996373 
709 1 709 1.07938 0.279694 0 0.00942879 
710 1 710 1.07931 0.319659 0 0.00488275 
711 1 711 1.07925 0.359629 0 0.132533 
712 1 712 1.07918 0.399602 0 0.366269 
713 1 713 1.07911 0.439577 0 0.690108 
714 1 714 1.07905 0.479556 0 1.06476 
715 1 715 1.07899 0.519535 0 1.40416 
716 1 716 1.07892 0.559518 0 1.66611 
717 1 717 1.07885 0.599507 0 1.90951 
718 1 718 1.07877 0.639504 0 2.0097 
719 1 719 1.07871 0.679504 0 2.01973 
720 1 720 1.07864 0.71951 0 1.89747 
721 1 721 1.07857 0.759522 0 1.79839 
722 1 722 1.0785 0.799542 0 1.94736 
723 1 723 1.07843 0.839566 0 2.09043 
724 1 724 1.07837 0.879596 0 2.43424 
725 1 725 1.07831 0.919634 0 2.57922 
726 1 726 1.07828 0.959677 0 2.56561 
727 1 727 1.07827 0.999728 0 2.70233 
728 1 728 1.12 0 0 0 
729 1 729 1.1199 0.0399567 0 0.829278 
730 1 730 1.1198 0.0799098 0 0.895099 
731 1 731 1.1197 0.119862 0 0.611202 
732 1 732 1.11961 0.159816 0 0.421034 
733 1 733 1.11952 0.199769 0 0.285759 
734 1 734 1.11944 0.239725 0 0.179617 
735 1 735 1.11937 0.279686 0 -0.00863993 
736 1 736 1.11929 0.319651 0 -0.132375 
737 1 737 1.11922 0.359621 0 -0.103325 
738 1 738 1.11915 0.399594 0 0.0747581 
739 1 739 1.11908 0.439569 0 0.436454 
740 1 740 1.11902 0.479547 0 0.934813 
741 1 741 1.11895 0.519527 0 1.42754 
742 1 742 1.11887 0.559512 0 1.79857 
743 1 743 1.11881 0.599498 0 2.14583 
744 1 744 1.11872 0.639491 0 2.32815 
745 1 745 1.11863 0.679491 0 2.36286 
746 1 746 1.11855 0.719501 0 2.13379 
747 1 747 1.11848 0.759516 0 1.87919 
748 1 748 1.1184 0.799538 0 1.91255 
749 1 749 1.11832 0.839567 0 1.96368 
750 1 750 1.11826 0.8796 0 2.37182 
751 1 751 1.11821 0.919638 0 2.61723 
752 1 752 1.11817 0.959682 0 2.68953 
753 1 753 1.11814 0.999734 0 2.88702 
754 1 754 1.16 0 0 0 
755 1 755 1.1599 0.0399562 0 0.768537 
756 1 756 1.1598 0.0799091 0 0.886931 
757 1 757 1.1597 0.119861 0 0.703594 
758 1 758 1.1596 0.159813 0 0.589002 
759 1 759 1.15952 0.199766 0 0.481056 
760 1 760 1.15943 0.239722 0 0.323704 
761 1 761 1.15935 0.279682 0 0.0275941 
762 1 762 1.15927 0.319646 0 -0.20189 
763 1 763 1.1592 0.359616 0 -0.22356 
764 1 764 1.15912 0.399589 0 0.00728759 
765 1 765 1.15905 0.439564 0 0.466649 
766 1 766 1.15898 0.479542 0 0.974746 
767 1 767 1.15891 0.519521 0 1.4322 
768 1 768 1.15883 0.559505 0 1.79758 
769 1 769 1.15874 0.599496 0 2.17885 
770 1 770 1.15865 0.639496 0 2.39784 
771 1 771 1.15858 0.679498 0 2.43761 
772 1 772 1.15849 0.719508 0 2.14731 
773 1 773 1.1584 0.759525 0 1.82685 
774 1 774 1.15832 0.799549 0 1.83706 
775 1 775 1.15824 0.839577 0 1.85669 
776 1 776 1.15816 0.879611 0 2.27419 
777 1 777 1.1581 0.919652 0 2.6012 
778 1 778 1.15806 0.959697 0 2.77073 
779 1 779 1.15803 0.999749 0 3.00202 
780 1 780 1.2 0 0 0 
781 1 781 1.1999 0.0399562 0 0.561558 
782 1 782 1.1998 0.0799088 0 0.792936 
783 1 783 1.1997 0.119861 0 0.800641 
784 1 784 1.1996 0.159814 0 0.762498 