ITEM: TIMESTEP
0
ITEM: NUMBER OF ATOMS
6875
ITEM: BOX BOUNDS sm sm sm
0 4
0 2
0 0
ITEM: ATOMS id type tag x y z damage s11 s22 s33 s12 s13 s23 vx T ienergy 
1 1 1 0.0199989 0.0200009 0 0 0.00881159 0.0111396 0.00640019 0.00357655 0 0 0.0705607 0 0 
2 1 2 0.0199983 0.0600014 0 0 0.0118284 0.00944066 0.0068302 0.00612721 0 0 -0.057565 0 0 
3 1 3 0.0199978 0.100002 0 0 -0.00861307 -0.00782604 -0.0052538 0.00180292 0 0 -0.183573 0 0 
4 1 4 0.0199971 0.14 0 0 -0.0421253 -0.026906 -0.0221095 -0.00165328 0 0 -0.266232 0 0 
5 1 5 0.0199954 0.179999 0 0 -0.0667131 -0.0438926 -0.0354335 -0.00576563 0 0 -0.18617 0 0 
6 1 6 0.0199946 0.219997 0 0 -0.0790073 -0.0446798 -0.0396262 -0.0134101 0 0 -0.0662534 0 0 
7 1 7 0.0199936 0.259997 0 0 -0.0888956 -0.0499405 -0.0444824 -0.0161973 0 0 -0.154936 0 0 
8 1 8 0.0199938 0.299995 0 0 -0.0863195 -0.0399522 -0.0404515 -0.0193102 0 0 -0.120439 0 0 
9 1 9 0.019993 0.339996 0 0 -0.0870052 -0.0400422 -0.0406996 -0.0175474 0 0 -0.137633 0 0 
10 1 10 0.0199928 0.379996 0 0 -0.0852696 -0.0331655 -0.0379367 -0.0162698 0 0 -0.0626769 0 0 
11 1 11 0.0199909 0.419998 0 0 -0.0904911 -0.036815 -0.0407803 -0.0111031 0 0 -0.143627 0 0 
12 1 12 0.0199878 0.459999 0 0 -0.108191 -0.0370624 -0.0465366 -0.00993182 0 0 -0.393896 0 0 
13 1 13 0.0199828 0.500002 0 0 -0.141539 -0.0612463 -0.0649869 0.000781303 0 0 -0.841309 0 0 
14 1 14 0.0199781 0.540003 0 0 -0.17363 -0.0689007 -0.077738 0.000772273 0 0 -0.665244 0 0 
15 1 15 0.0199694 0.580005 0 0 -0.226895 -0.108228 -0.107451 0.00902509 0 0 -0.608293 0 0 
16 1 16 0.0199607 0.620004 0 0 -0.26221 -0.119332 -0.122352 0.00751913 0 0 -0.819889 0 0 
17 1 17 0.0199529 0.660004 0 0 -0.304592 -0.149272 -0.145575 0.0104613 0 0 -1.4243 0 0 
18 1 18 0.0199513 0.700004 0 0 -0.33882 -0.141162 -0.153964 0.00841726 0 0 -1.76145 0 0 
19 1 19 0.0199524 0.740007 0 0 -0.375006 -0.169238 -0.174608 0.0292786 0 0 -2.16893 0 0 
20 1 20 0.0199568 0.780009 0 0 -0.397618 -0.145665 -0.174299 0.0308241 0 0 -1.35363 0 0 
21 1 21 0.0199577 0.820017 0 0 -0.442869 -0.179424 -0.199688 0.0722741 0 0 -1.48383 0 0 
22 1 22 0.0199624 0.860022 0 0 -0.453521 -0.15177 -0.194224 0.0884496 0 0 -0.607184 0 0 
23 1 23 0.0199598 0.900034 0 0 -0.516567 -0.193735 -0.227984 0.135318 0 0 -0.684522 0 0 
24 1 24 0.019961 0.940041 0 0 -0.548654 -0.185423 -0.235638 0.171242 0 0 -0.393579 0 0 
25 1 25 0.0199388 0.980066 0 0 -0.789047 -0.188411 -0.323947 0.182618 0 0 -0.651108 0 0 
26 1 26 0.0600017 0.0200015 0 0 0.00542125 0.0163409 0.00698266 0.00156458 0 0 0.151513 0 0 
27 1 27 0.0600031 0.0600021 0 0 -0.0113884 -0.00251812 -0.00444408 -0.00355581 0 0 -0.0487918 0 0 
28 1 28 0.0599991 0.100002 0 0 -0.0275789 -0.020604 -0.0154246 -0.0126935 0 0 -0.116468 0 0 
29 1 29 0.0599942 0.14 0 0 -0.0386116 -0.0343131 -0.0233517 -0.0132104 0 0 -0.176718 0 0 
30 1 30 0.0599907 0.179997 0 0 -0.0544388 -0.0514183 -0.0339126 -0.0100961 0 0 -0.221573 0 0 
31 1 31 0.0599883 0.219993 0 0 -0.0681764 -0.0472175 -0.0369714 -0.0141423 0 0 -0.273225 0 0 
32 1 32 0.0599849 0.259991 0 0 -0.090589 -0.0555445 -0.0468274 -0.00734897 0 0 -0.571833 0 0 
33 1 33 0.0599842 0.29999 0 0 -0.098185 -0.0431506 -0.0452856 -0.00620879 0 0 -0.326348 0 0 
34 1 34 0.0599832 0.339991 0 0 -0.107897 -0.0456928 -0.0492155 -0.00137272 0 0 -0.265677 0 0 
35 1 35 0.0599833 0.379992 0 0 -0.112598 -0.0385375 -0.0484262 -0.00374985 0 0 0.0065815 0 0 
36 1 36 0.0599824 0.419995 0 0 -0.128548 -0.0451578 -0.0556622 -0.00164742 0 0 0.219099 0 0 
37 1 37 0.0599809 0.459998 0 0 -0.145624 -0.0404223 -0.059623 -0.0126943 0 0 0.727107 0 0 
38 1 38 0.0599772 0.500002 0 0 -0.181977 -0.0666 -0.0796806 -0.00188807 0 0 0.629225 0 0 
39 1 39 0.0599749 0.540005 0 0 -0.202584 -0.0663531 -0.0862123 -0.00925448 0 0 0.682177 0 0 
40 1 40 0.0599721 0.580009 0 0 -0.238619 -0.101005 -0.108896 0.00393691 0 0 0.0296327 0 0 
41 1 41 0.059973 0.620011 0 0 -0.263389 -0.104904 -0.1181 0.00685265 0 0 -0.0914466 0 0 
42 1 42 0.0599694 0.660015 0 0 -0.316716 -0.138735 -0.146084 0.0195165 0 0 0.234805 0 0 
43 1 43 0.0599605 0.700019 0 0 -0.345748 -0.116906 -0.148399 0.0206839 0 0 1.07197 0 0 
44 1 44 0.0599476 0.740028 0 0 -0.404266 -0.139601 -0.174487 0.0522359 0 0 0.880744 0 0 
45 1 45 0.0599352 0.780039 0 0 -0.426269 -0.105117 -0.170476 0.047533 0 0 1.6462 0 0 
46 1 46 0.0599207 0.820056 0 0 -0.469428 -0.10908 -0.185615 0.0924343 0 0 0.88534 0 0 
47 1 47 0.0599107 0.860076 0 0 -0.501246 -0.0968362 -0.191913 0.0975482 0 0 0.894947 0 0 
48 1 48 0.0598976 0.900101 0 0 -0.521838 -0.0800253 -0.193117 0.132882 0 0 0.642326 0 0 
49 1 49 0.0598826 0.940132 0 0 -0.617952 -0.0670664 -0.219858 0.153297 0 0 0.125037 0 0 
50 1 50 0.0598356 0.980175 0 0 -0.592106 0.0284493 -0.180853 0.0385672 0 0 -0.0186893 0 0 
51 1 51 0.0999981 0.0200002 0 0 -0.0105509 -0.00399497 -0.00466369 -0.00634523 0 0 -0.244686 0 0 
52 1 52 0.0999951 0.0599996 0 0 -0.0300055 -0.0190756 -0.0157224 -0.0145494 0 0 -0.497062 0 0 
53 1 53 0.0999931 0.0999992 0 0 -0.0335206 -0.0221522 -0.0178267 -0.0193902 0 0 -0.114484 0 0 
54 1 54 0.0999892 0.139997 0 0 -0.0422279 -0.0373402 -0.0254845 -0.0204207 0 0 -0.169198 0 0 
55 1 55 0.099984 0.179994 0 0 -0.0599269 -0.0494538 -0.0350452 -0.0169061 0 0 -0.64044 0 0 
56 1 56 0.0999777 0.219991 0 0 -0.0799489 -0.0488255 -0.0412638 -0.0201237 0 0 -0.710859 0 0 
57 1 57 0.0999719 0.25999 0 0 -0.0999468 -0.0534956 -0.049175 -0.00902903 0 0 -1.03578 0 0 
58 1 58 0.0999683 0.29999 0 0 -0.112634 -0.0446521 -0.0504052 -0.0079039 0 0 -0.684559 0 0 
59 1 59 0.0999653 0.339992 0 0 -0.128378 -0.0493804 -0.0569712 0.00103665 0 0 -0.58701 0 0 
60 1 60 0.0999622 0.379994 0 0 -0.144171 -0.0504102 -0.0623632 -0.00480282 0 0 -0.170984 0 0 
61 1 61 0.0999567 0.419998 0 0 -0.164037 -0.0545186 -0.0700505 -0.000522817 0 0 -0.257095 0 0 
62 1 62 0.0999476 0.460002 0 0 -0.17844 -0.0537872 -0.074438 -0.0137678 0 0 -0.370341 0 0 
63 1 63 0.0999358 0.500008 0 0 -0.199572 -0.0605221 -0.0833784 -0.00318611 0 0 -0.952293 0 0 
64 1 64 0.0999233 0.540014 0 0 -0.224644 -0.0637435 -0.0924546 -0.00975552 0 0 -0.936905 0 0 
65 1 65 0.0999069 0.58002 0 0 -0.261125 -0.086454 -0.111448 0.00521109 0 0 -1.11313 0 0 
66 1 66 0.0998896 0.620027 0 0 -0.288877 -0.0857343 -0.120128 0.00839873 0 0 -1.34812 0 0 
67 1 67 0.0998715 0.660035 0 0 -0.327256 -0.100361 -0.137145 0.0207962 0 0 -1.86889 0 0 
68 1 68 0.0998574 0.700045 0 0 -0.353917 -0.0887195 -0.14197 0.0297652 0 0 -2.19579 0 0 
69 1 69 0.0998463 0.74006 0 0 -0.392883 -0.078016 -0.151048 0.0516272 0 0 -2.1057 0 0 
70 1 70 0.099837 0.78008 0 0 -0.433187 -0.0643264 -0.159598 0.0606621 0 0 -1.39536 0 0 
71 1 71 0.0998273 0.820105 0 0 -0.458336 -0.0419093 -0.160474 0.0883326 0 0 -1.258 0 0 
72 1 72 0.0998193 0.860135 0 0 -0.492021 -0.0350115 -0.169087 0.0977153 0 0 -1.11571 0 0 
73 1 73 0.0998061 0.900171 0 0 -0.535621 -0.0122495 -0.175772 0.110157 0 0 -1.00974 0 0 
74 1 74 0.0997842 0.940212 0 0 -0.540098 0.0257322 -0.16501 0.0762529 0 0 -1.47603 0 0 
75 1 75 0.0997424 0.980254 0 0 -0.515728 -0.0170289 -0.170922 0.0296647 0 0 -0.991193 0 0 
76 1 76 0.139999 0.0199985 0 0 -0.0248696 -0.032733 -0.018459 -0.0113191 0 0 -0.306217 0 0 
77 1 77 0.139997 0.059995 0 0 -0.0368041 -0.0314091 -0.0218532 -0.0158451 0 0 -0.404063 0 0 
78 1 78 0.139992 0.0999941 0 0 -0.0402881 -0.0251686 -0.0209722 -0.0207669 0 0 -0.107818 0 0 
79 1 79 0.139985 0.139991 0 0 -0.0621896 -0.0485354 -0.0354781 -0.0269907 0 0 -0.26785 0 0 
80 1 80 0.139978 0.17999 0 0 -0.0753443 -0.0458908 -0.0388459 -0.0260728 0 0 -0.856262 0 0 
81 1 81 0.13997 0.219988 0 0 -0.0889034 -0.046794 -0.0434825 -0.030987 0 0 -0.868448 0 0 
82 1 82 0.139961 0.259988 0 0 -0.108628 -0.0498839 -0.0507994 -0.020185 0 0 -1.30297 0 0 
83 1 83 0.139954 0.299989 0 0 -0.130274 -0.0458783 -0.0564588 -0.0202939 0 0 -0.925177 0 0 
84 1 84 0.139949 0.339992 0 0 -0.155918 -0.052737 -0.0668846 -0.0070017 0 0 -0.822747 0 0 
85 1 85 0.139944 0.379995 0 0 -0.176481 -0.0556084 -0.0743969 -0.0123595 0 0 -0.270822 0 0 
86 1 86 0.139938 0.420001 0 0 -0.199021 -0.0556013 -0.0816214 -0.00306871 0 0 0.242895 0 0 
87 1 87 0.13993 0.460007 0 0 -0.225073 -0.0633973 -0.0924815 -0.00997926 0 0 0.848389 0 0 
88 1 88 0.13992 0.500015 0 0 -0.253026 -0.0682732 -0.103018 0.00256805 0 0 0.956365 0 0 
89 1 89 0.13991 0.540023 0 0 -0.272834 -0.0650738 -0.108346 0.000646326 0 0 0.592236 0 0 
90 1 90 0.139901 0.580034 0 0 -0.293728 -0.0736765 -0.117813 0.0165669 0 0 -0.23088 0 0 
91 1 91 0.139892 0.620046 0 0 -0.319247 -0.0656783 -0.12344 0.0157454 0 0 -0.561321 0 0 
92 1 92 0.139878 0.660062 0 0 -0.358809 -0.0735762 -0.138678 0.025356 0 0 -0.176097 0 0 
93 1 93 0.139857 0.700079 0 0 -0.397326 -0.0711094 -0.150259 0.0291012 0 0 0.47456 0 0 
94 1 94 0.139831 0.7401 0 0 -0.436423 -0.0599197 -0.159223 0.0432338 0 0 1.22347 0 0 
95 1 95 0.139804 0.780126 0 0 -0.46115 -0.034073 -0.158866 0.0497946 0 0 1.50784 0 0 
96 1 96 0.139779 0.820158 0 0 -0.485897 -0.0282506 -0.164942 0.07496 0 0 0.871643 0 0 
97 1 97 0.139757 0.860193 0 0 -0.497919 0.0118775 -0.155913 0.0723067 0 0 0.580973 0 0 
98 1 98 0.139732 0.900234 0 0 -0.51467 0.00876588 -0.162287 0.0734362 0 0 -0.0885956 0 0 
99 1 99 0.139705 0.940274 0 0 -0.50502 0.0200984 -0.155561 0.0592784 0 0 -0.734664 0 0 
100 1 100 0.139665 0.980316 0 0 -0.493348 0.0135002 -0.15393 0.0160476 0 0 -0.597106 0 0 
101 1 101 0.179995 0.0199972 0 0 -0.038449 -0.0563717 -0.0303762 -0.0180095 0 0 -0.380674 0 0 
102 1 102 0.179987 0.0599918 0 0 -0.0567423 -0.0517875 -0.0347743 -0.0183458 0 0 -0.560458 0 0 
103 1 103 0.179983 0.099989 0 0 -0.0640867 -0.0439126 -0.0346112 -0.0223984 0 0 -0.282008 0 0 
104 1 104 0.179977 0.139986 0 0 -0.0672492 -0.0503668 -0.0376898 -0.028439 0 0 -0.345649 0 0 
105 1 105 0.179968 0.179985 0 0 -0.0654193 -0.0360996 -0.0325257 -0.0304004 0 0 -0.936123 0 0 
106 1 106 0.179957 0.219984 0 0 -0.0819789 -0.0394313 -0.0388981 -0.0373618 0 0 -1.09344 0 0 
107 1 107 0.179945 0.259985 0 0 -0.106668 -0.0403978 -0.0471256 -0.0313943 0 0 -1.63296 0 0 
108 1 108 0.179934 0.299987 0 0 -0.134385 -0.039189 -0.0556327 -0.0294111 0 0 -1.36581 0 0 
109 1 109 0.179924 0.339992 0 0 -0.168764 -0.0461346 -0.0688905 -0.0179915 0 0 -1.02725 0 0 
110 1 110 0.179914 0.379999 0 0 -0.199911 -0.0460723 -0.078857 -0.0186263 0 0 -0.474222 0 0 
111 1 111 0.179902 0.420008 0 0 -0.227634 -0.0513632 -0.0894426 -0.0116949 0 0 -0.277127 0 0 
112 1 112 0.179886 0.460017 0 0 -0.244627 -0.0471065 -0.0935294 -0.0146614 0 0 -0.420901 0 0 
113 1 113 0.179868 0.500029 0 0 -0.259032 -0.0472999 -0.0982157 -0.00422416 0 0 -0.891042 0 0 
114 1 114 0.179848 0.540043 0 0 -0.280129 -0.0428089 -0.103543 -0.00247212 0 0 -1.03388 0 0 
115 1 115 0.179824 0.580058 0 0 -0.311299 -0.0475622 -0.115073 0.0117439 0 0 -1.29714 0 0 
116 1 116 0.179797 0.620075 0 0 -0.342856 -0.0444711 -0.124213 0.010012 0 0 -1.51187 0 0 
117 1 117 0.179769 0.660094 0 0 -0.36359 -0.0399759 -0.129426 0.02398 0 0 -2.24365 0 0 
118 1 118 0.179744 0.700117 0 0 -0.376384 -0.0280087 -0.129695 0.0236745 0 0 -2.3318 0 0 
119 1 119 0.17972 0.740143 0 0 -0.405309 -0.0175797 -0.135632 0.0333143 0 0 -1.8591 0 0 
120 1 120 0.179699 0.780173 0 0 -0.425064 -0.00140328 -0.136784 0.0422272 0 0 -1.47803 0 0 
121 1 121 0.17968 0.820207 0 0 -0.447675 0.0145475 -0.138919 0.055951 0 0 -1.21759 0 0 
122 1 122 0.179661 0.860245 0 0 -0.464678 0.0313649 -0.138974 0.0518216 0 0 -1.25438 0 0 
123 1 123 0.179641 0.900286 0 0 -0.468158 0.0311 -0.140175 0.0544502 0 0 -1.38275 0 0 
124 1 124 0.179618 0.940327 0 0 -0.469086 0.0372149 -0.138531 0.0389663 0 0 -1.75069 0 0 
125 1 125 0.179583 0.980366 0 0 -0.464654 0.00832949 -0.146382 0.00952942 0 0 -1.68569 0 0 
126 1 126 0.219996 0.0199957 0 0 -0.0490232 -0.0774922 -0.0405379 -0.0264033 0 0 -0.218828 0 0 
127 1 127 0.219987 0.0599884 0 0 -0.0614677 -0.0615298 -0.0394085 -0.0234357 0 0 -0.360316 0 0 
128 1 128 0.219979 0.0999841 0 0 -0.0681873 -0.0545849 -0.0393416 -0.0216549 0 0 -0.250898 0 0 
129 1 129 0.219971 0.139982 0 0 -0.0698509 -0.0414683 -0.0356699 -0.0243667 0 0 -0.267783 0 0 
130 1 130 0.219961 0.179981 0 0 -0.0819654 -0.0430028 -0.040043 -0.0279105 0 0 -0.834756 0 0 
131 1 131 0.219948 0.21998 0 0 -0.093942 -0.0392259 -0.0426661 -0.0346025 0 0 -1.13585 0 0 
132 1 132 0.219932 0.259982 0 0 -0.112021 -0.0360411 -0.0474409 -0.0328147 0 0 -1.61779 0 0 
133 1 133 0.219917 0.299986 0 0 -0.140963 -0.0338949 -0.0560407 -0.0325978 0 0 -1.5414 0 0 
134 1 134 0.219902 0.339993 0 0 -0.174939 -0.03773 -0.0681748 -0.0230668 0 0 -1.24909 0 0 
135 1 135 0.219888 0.380001 0 0 -0.203404 -0.0269857 -0.0738584 -0.0250628 0 0 -0.676352 0 0 
136 1 136 0.219873 0.420013 0 0 -0.247056 -0.0445521 -0.0934946 -0.0177808 0 0 -0.183021 0 0 
137 1 137 0.219858 0.460026 0 0 -0.279014 -0.0389856 -0.101965 -0.0196611 0 0 0.614828 0 0 
138 1 138 0.219841 0.500041 0 0 -0.313701 -0.0476639 -0.115886 -0.009512 0 0 0.716154 0 0 
139 1 139 0.219824 0.540058 0 0 -0.33451 -0.044083 -0.121413 -0.0105949 0 0 0.450862 0 0 
140 1 140 0.219807 0.580078 0 0 -0.348592 -0.0350053 -0.123019 0.00184128 0 0 -0.424006 0 0 
141 1 141 0.219789 0.6201 0 0 -0.366681 -0.0242745 -0.125382 -0.00775698 0 0 -0.518643 0 0 
142 1 142 0.219765 0.660126 0 0 -0.405069 -0.0299702 -0.139534 0.00695417 0 0 -0.438549 0 0 
143 1 143 0.219736 0.700154 0 0 -0.438888 -0.0267239 -0.149353 0.00206599 0 0 0.456346 0 0 
144 1 144 0.219698 0.740185 0 0 -0.463739 -0.0209819 -0.15549 0.0106732 0 0 1.31194 0 0 
145 1 145 0.219662 0.780217 0 0 -0.477462 -0.0136626 -0.157545 0.0291607 0 0 1.07194 0 0 
146 1 146 0.219629 0.820254 0 0 -0.482905 0.00573512 -0.15306 0.0357269 0 0 1.02469 0 0 
147 1 147 0.2196 0.860292 0 0 -0.482834 0.0215722 -0.147951 0.0422899 0 0 0.371189 0 0 
148 1 148 0.219573 0.900332 0 0 -0.483225 0.0143552 -0.15039 0.0453348 0 0 -0.259388 0 0 
149 1 149 0.219547 0.940371 0 0 -0.465287 0.032424 -0.138849 0.0269392 0 0 -0.924934 0 0 
150 1 150 0.219513 0.98041 0 0 -0.453813 0.00753687 -0.143156 0.00744452 0 0 -1.41059 0 0 
151 1 151 0.259991 0.0199947 0 0 -0.0623339 -0.099648 -0.0519132 -0.0356179 0 0 -0.189974 0 0 
152 1 152 0.259976 0.0599857 0 0 -0.0759286 -0.0713476 -0.0471917 -0.0286357 0 0 -0.0512109 0 0 
153 1 153 0.259968 0.0999815 0 0 -0.0892595 -0.0648312 -0.0493795 -0.0204256 0 0 -0.0316575 0 0 
154 1 154 0.259961 0.139979 0 0 -0.0827865 -0.0389073 -0.0389922 -0.0231974 0 0 -0.19227 0 0 
155 1 155 0.259949 0.17998 0 0 -0.0845166 -0.0362813 -0.0387047 -0.02723 0 0 -0.836145 0 0 
156 1 156 0.259934 0.219981 0 0 -0.0904582 -0.0310402 -0.0389232 -0.0344993 0 0 -1.26699 0 0 
157 1 157 0.259915 0.259984 0 0 -0.10346 -0.0240319 -0.0408428 -0.0347692 0 0 -1.79548 0 0 
158 1 158 0.259895 0.299989 0 0 -0.132197 -0.0278214 -0.0512771 -0.0398141 0 0 -1.87017 0 0 
159 1 159 0.259874 0.339996 0 0 -0.172591 -0.0263099 -0.0637518 -0.0329842 0 0 -1.56839 0 0 
160 1 160 0.259853 0.380007 0 0 -0.216475 -0.0267151 -0.0779623 -0.0386325 0 0 -1.07096 0 0 
161 1 161 0.259829 0.42002 0 0 -0.252738 -0.0279796 -0.0900029 -0.0320871 0 0 -0.795392 0 0 
162 1 162 0.259805 0.460036 0 0 -0.272663 -0.0206938 -0.0940633 -0.0335485 0 0 -0.693069 0 0 
163 1 163 0.259779 0.500055 0 0 -0.287614 -0.0161226 -0.0973967 -0.0253254 0 0 -1.21781 0 0 
164 1 164 0.259751 0.540076 0 0 -0.314121 -0.0106874 -0.104153 -0.0305348 0 0 -1.23454 0 0 
165 1 165 0.259719 0.580099 0 0 -0.358439 -0.0164503 -0.120225 -0.0176457 0 0 -1.56151 0 0 
166 1 166 0.259683 0.620125 0 0 -0.387664 -0.00565952 -0.126141 -0.0262009 0 0 -1.63764 0 0 
167 1 167 0.259646 0.660155 0 0 -0.406951 0.00053529 -0.130342 -0.0100531 0 0 -2.29076 0 0 
168 1 168 0.259613 0.700187 0 0 -0.416115 0.0122228 -0.129531 -0.00900727 0 0 -2.4093 0 0 
169 1 169 0.259581 0.740221 0 0 -0.422068 0.0206004 -0.128753 -0.00102214 0 0 -1.96152 0 0 
170 1 170 0.259553 0.780257 0 0 -0.434282 0.021807 -0.132286 0.0161903 0 0 -1.87566 0 0 
171 1 171 0.259528 0.820294 0 0 -0.448988 0.0240836 -0.136272 0.0204109 0 0 -1.18837 0 0 
172 1 172 0.259506 0.860333 0 0 -0.445545 0.0343588 -0.131872 0.0332024 0 0 -1.47189 0 0 
173 1 173 0.259487 0.900372 0 0 -0.445472 0.020852 -0.13618 0.0310809 0 0 -1.4273 0 0 
174 1 174 0.259465 0.940409 0 0 -0.442028 0.0292996 -0.132383 0.0170843 0 0 -1.86031 0 0 
175 1 175 0.259437 0.980446 0 0 -0.432712 0.0078144 -0.136288 0.00280349 0 0 -2.35219 0 0 
176 1 176 0.299991 0.019994 0 0 -0.0709612 -0.11201 -0.0586448 -0.044604 0 0 0.0752467 0 0 
177 1 177 0.299974 0.059984 0 0 -0.0810481 -0.0759864 -0.0503233 -0.0315525 0 0 0.518144 0 0 
178 1 178 0.299961 0.0999797 0 0 -0.0934588 -0.0640249 -0.0504664 -0.0220776 0 0 0.045166 0 0 
179 1 179 0.29995 0.139978 0 0 -0.0961867 -0.040606 -0.0438313 -0.0221166 0 0 -0.249367 0 0 
180 1 180 0.299939 0.17998 0 0 -0.100167 -0.0321864 -0.0424091 -0.0261437 0 0 -0.608164 0 0 
181 1 181 0.299923 0.219982 0 0 -0.106863 -0.0310874 -0.0441992 -0.0351787 0 0 -1.04825 0 0 
182 1 182 0.299901 0.259987 0 0 -0.12062 -0.026004 -0.0469776 -0.0400652 0 0 -1.56055 0 0 
183 1 183 0.299877 0.299992 0 0 -0.151445 -0.0344502 -0.0595722 -0.0482522 0 0 -1.80993 0 0 
184 1 184 0.29985 0.34 0 0 -0.184544 -0.0280704 -0.0681436 -0.0462874 0 0 -1.66501 0 0 
185 1 185 0.299823 0.380011 0 0 -0.22296 -0.0242999 -0.0792603 -0.0488698 0 0 -1.36734 0 0 
186 1 186 0.299796 0.420025 0 0 -0.259205 -0.0232806 -0.0905672 -0.0417196 0 0 -0.840314 0 0 
187 1 187 0.299771 0.460043 0 0 -0.302688 -0.0193009 -0.103251 -0.0458517 0 0 0.00359289 0 0 
188 1 188 0.299745 0.500063 0 0 -0.357487 -0.0384147 -0.126981 -0.0345671 0 0 0.041266 0 0 
189 1 189 0.299719 0.540086 0 0 -0.378047 -0.0152433 -0.126137 -0.0424019 0 0 0.276042 0 0 
190 1 190 0.299692 0.580114 0 0 -0.402279 -0.0144852 -0.133668 -0.0297105 0 0 -0.393729 0 0 
191 1 191 0.299665 0.620145 0 0 -0.419505 0.00403082 -0.133252 -0.0377676 0 0 -0.47097 0 0 
192 1 192 0.299632 0.660179 0 0 -0.457611 0.00445423 -0.145352 -0.0287049 0 0 -0.098868 0 0 
193 1 193 0.299594 0.700216 0 0 -0.497183 -0.000891745 -0.159779 -0.0269968 0 0 0.406538 0 0 
194 1 194 0.299551 0.740254 0 0 -0.513616 -0.00807797 -0.167367 -0.0165318 0 0 0.784343 0 0 
195 1 195 0.299511 0.780292 0 0 -0.515882 -0.0074398 -0.167888 -0.0025361 0 0 0.515312 0 0 
196 1 196 0.299475 0.82033 0 0 -0.515475 -0.0071956 -0.167674 0.00130104 0 0 0.709574 0 0 
197 1 197 0.299446 0.860367 0 0 -0.500334 -0.00405331 -0.161807 0.0214474 0 0 -0.162632 0 0 
198 1 198 0.299422 0.900404 0 0 -0.486078 -0.00716028 -0.158221 0.0154382 0 0 -0.282315 0 0 
199 1 199 0.299398 0.940439 0 0 -0.457165 0.00412142 -0.145328 0.00394257 0 0 -1.13121 0 0 
200 1 200 0.299372 0.980474 0 0 -0.423378 0.00127326 -0.135389 -0.00240494 0 0 -1.79922 0 0 
201 1 201 0.339985 0.019994 0 0 -0.0661881 -0.109672 -0.0563642 -0.0551476 0 0 0.133082 0 0 
202 1 202 0.339962 0.059984 0 0 -0.081921 -0.0798406 -0.0518397 -0.0386807 0 0 0.762657 0 0 
203 1 203 0.339947 0.0999796 0 0 -0.104412 -0.0666527 -0.0548221 -0.0279005 0 0 0.362777 0 0 
204 1 204 0.339936 0.139979 0 0 -0.110553 -0.0416332 -0.0487673 -0.0233087 0 0 0.0395402 0 0 
205 1 205 0.339922 0.179982 0 0 -0.114617 -0.0321964 -0.0470465 -0.0274917 0 0 -0.478714 0 0 
206 1 206 0.339904 0.219985 0 0 -0.121934 -0.0306964 -0.0489093 -0.0386536 0 0 -1.15387 0 0 
207 1 207 0.339881 0.25999 0 0 -0.134287 -0.0311085 -0.0529991 -0.0485184 0 0 -1.76533 0 0 
208 1 208 0.339852 0.299996 0 0 -0.155524 -0.0303732 -0.0595722 -0.0601534 0 0 -2.17132 0 0 
209 1 209 0.339819 0.340005 0 0 -0.188801 -0.0311923 -0.0705102 -0.0625683 0 0 -2.00892 0 0 
210 1 210 0.339784 0.380016 0 0 -0.229447 -0.0198787 -0.0799194 -0.0685648 0 0 -1.61638 0 0 
211 1 211 0.339749 0.420032 0 0 -0.282458 -0.0318883 -0.100786 -0.0591608 0 0 -1.4973 0 0 
212 1 212 0.339713 0.460051 0 0 -0.301105 -0.00608471 -0.0984952 -0.0636136 0 0 -1.15526 0 0 
213 1 213 0.339676 0.500075 0 0 -0.326439 -0.00698351 -0.106919 -0.0504067 0 0 -1.56086 0 0 
214 1 214 0.339638 0.5401 0 0 -0.351176 0.0136963 -0.108217 -0.0584721 0 0 -1.38316 0 0 
215 1 215 0.339595 0.580131 0 0 -0.398113 0.014508 -0.12302 -0.0494807 0 0 -1.4237 0 0 
216 1 216 0.339549 0.620165 0 0 -0.437766 0.0169616 -0.134965 -0.0517752 0 0 -1.61956 0 0 
217 1 217 0.339502 0.660202 0 0 -0.44783 0.0301238 -0.133969 -0.0407618 0 0 -2.0912 0 0 
218 1 218 0.339461 0.700241 0 0 -0.44694 0.0385047 -0.130993 -0.0356847 0 0 -2.61044 0 0 
219 1 219 0.339426 0.740281 0 0 -0.450888 0.0311055 -0.134635 -0.0234925 0 0 -2.80315 0 0 
220 1 220 0.339397 0.78032 0 0 -0.455385 0.0265101 -0.137553 -0.0131108 0 0 -2.73641 0 0 
221 1 221 0.339371 0.820358 0 0 -0.4621 0.00768475 -0.145752 -0.00770006 0 0 -2.08344 0 0 
222 1 222 0.339352 0.860394 0 0 -0.4533 0.0047264 -0.143884 0.0117411 0 0 -2.45171 0 0 
223 1 223 0.339337 0.900428 0 0 -0.447726 -0.000574393 -0.143793 0.00103759 0 0 -1.819 0 0 
224 1 224 0.339319 0.940462 0 0 -0.435406 -0.00302522 -0.140636 -0.00162799 0 0 -2.25434 0 0 
225 1 225 0.339301 0.980494 0 0 -0.406288 0.00188341 -0.129704 -0.00744349 0 0 -2.19767 0 0 
226 1 226 0.379986 0.0199941 0 0 -0.0651025 -0.106151 -0.0548846 -0.0646325 0 0 0.461933 0 0 
227 1 227 0.37996 0.0599839 0 0 -0.0837337 -0.084531 -0.0539233 -0.0479374 0 0 1.19468 0 0 
228 1 228 0.379939 0.0999794 0 0 -0.0996885 -0.0624916 -0.051973 -0.0368772 0 0 0.379075 0 0 
229 1 229 0.379922 0.139979 0 0 -0.114536 -0.0421403 -0.0502073 -0.0311751 0 0 -0.134073 0 0 
230 1 230 0.379907 0.179982 0 0 -0.129542 -0.034571 -0.0525949 -0.0344565 0 0 -0.491527 0 0 
231 1 231 0.379888 0.219987 0 0 -0.141386 -0.0344358 -0.0563497 -0.0450473 0 0 -0.959008 0 0 
232 1 232 0.379862 0.259992 0 0 -0.161453 -0.0401291 -0.0646094 -0.0573709 0 0 -1.42144 0 0 
233 1 233 0.379829 0.299999 0 0 -0.189191 -0.0393839 -0.0732661 -0.0705405 0 0 -1.74872 0 0 
234 1 234 0.379791 0.340008 0 0 -0.229363 -0.0470054 -0.0886009 -0.0743268 0 0 -1.89074 0 0 
235 1 235 0.37975 0.38002 0 0 -0.262584 -0.0344786 -0.0952379 -0.0811625 0 0 -1.62811 0 0 
236 1 236 0.37971 0.420036 0 0 -0.302347 -0.0304572 -0.106709 -0.0703062 0 0 -1.313 0 0 
237 1 237 0.379672 0.460056 0 0 -0.346251 -0.0198966 -0.117413 -0.0704975 0 0 -0.521252 0 0 
238 1 238 0.379635 0.500081 0 0 -0.397741 -0.020279 -0.134069 -0.0593167 0 0 -0.00252264 0 0 
239 1 239 0.379597 0.54011 0 0 -0.434975 -0.0107283 -0.142957 -0.0651077 0 0 0.225107 0 0 
240 1 240 0.379559 0.580144 0 0 -0.448167 0.00812704 -0.141139 -0.0568929 0 0 -0.244916 0 0 
241 1 241 0.379521 0.620181 0 0 -0.460769 0.0249346 -0.139793 -0.0639274 0 0 -0.254724 0 0 
242 1 242 0.37948 0.660222 0 0 -0.497614 0.0170635 -0.154153 -0.0563646 0 0 -0.150844 0 0 
243 1 243 0.379436 0.700263 0 0 -0.525874 0.0102392 -0.165423 -0.0512916 0 0 -0.0893128 0 0 
244 1 244 0.379392 0.740304 0 0 -0.545202 -0.0134511 -0.179242 -0.0396877 0 0 -0.249099 0 0 
245 1 245 0.379352 0.780343 0 0 -0.539251 -0.0123137 -0.176965 -0.0300614 0 0 -0.755983 0 0 
246 1 246 0.379318 0.82038 0 0 -0.531302 -0.0393675 -0.183104 -0.0201477 0 0 -0.679865 0 0 
247 1 247 0.379293 0.860413 0 0 -0.509428 -0.0371674 -0.175377 -0.000819049 0 0 -1.24246 0 0 
248 1 248 0.379273 0.900445 0 0 -0.491042 -0.0334987 -0.168288 -0.0111534 0 0 -0.79531 0 0 
249 1 249 0.379255 0.940476 0 0 -0.457413 -0.0268438 -0.155358 -0.00712831 0 0 -1.51783 0 0 
250 1 250 0.379239 0.980507 0 0 -0.414233 -0.00761718 -0.135307 -0.0118132 0 0 -1.12045 0 0 
251 1 251 0.419982 0.0199946 0 0 -0.0473494 -0.0920899 -0.0446827 -0.070651 0 0 0.342881 0 0 
252 1 252 0.419949 0.0599848 0 0 -0.0683692 -0.0819238 -0.048159 -0.0592255 0 0 0.963323 0 0 
253 1 253 0.419924 0.0999795 0 0 -0.101681 -0.0660724 -0.0537596 -0.0475765 0 0 0.451595 0 0 
254 1 254 0.419905 0.139979 0 0 -0.127117 -0.0500211 -0.0567702 -0.0408149 0 0 0.177604 0 0 
255 1 255 0.419886 0.179982 0 0 -0.147148 -0.0426074 -0.0608197 -0.0420217 0 0 -0.271929 0 0 
256 1 256 0.419864 0.219987 0 0 -0.164263 -0.0364236 -0.0643259 -0.0532634 0 0 -0.846269 0 0 
257 1 257 0.419835 0.259994 0 0 -0.188914 -0.0476678 -0.0758387 -0.0665916 0 0 -1.43746 0 0 
258 1 258 0.419798 0.300002 0 0 -0.204665 -0.0370034 -0.0774702 -0.0825523 0 0 -1.81825 0 0 
259 1 259 0.419754 0.340013 0 0 -0.240445 -0.0448312 -0.0914617 -0.0902036 0 0 -2.21582 0 0 
260 1 260 0.419706 0.380026 0 0 -0.278088 -0.0364702 -0.100855 -0.0952058 0 0 -2.07326 0 0 
261 1 261 0.419656 0.420043 0 0 -0.319589 -0.0298492 -0.112051 -0.086364 0 0 -1.86472 0 0 
262 1 262 0.419607 0.460066 0 0 -0.349164 -0.0111006 -0.115525 -0.0865257 0 0 -1.73012 0 0 
263 1 263 0.419558 0.500093 0 0 -0.368685 0.00597328 -0.116312 -0.0750855 0 0 -1.73312 0 0 
264 1 264 0.419508 0.540124 0 0 -0.388274 0.0289319 -0.115228 -0.0828109 0 0 -1.39639 0 0 
265 1 265 0.419454 0.58016 0 0 -0.432165 0.0278304 -0.129672 -0.0723046 0 0 -1.34039 0 0 
266 1 266 0.419399 0.620198 0 0 -0.459303 0.0342297 -0.136337 -0.0745389 0 0 -1.44503 0 0 
267 1 267 0.419345 0.660239 0 0 -0.456155 0.042558 -0.132651 -0.0640516 0 0 -2.29712 0 0 
268 1 268 0.419301 0.70028 0 0 -0.44358 0.0484436 -0.126723 -0.0548152 0 0 -3.4752 0 0 
269 1 269 0.419265 0.74032 0 0 -0.443906 0.0289971 -0.133069 -0.0448369 0 0 -4.04815 0 0 
270 1 270 0.419237 0.780358 0 0 -0.440338 0.0229306 -0.133875 -0.0358591 0 0 -4.25111 0 0 
271 1 271 0.419216 0.820393 0 0 -0.44711 -0.0129036 -0.147557 -0.0258691 0 0 -3.70403 0 0 
272 1 272 0.419202 0.860424 0 0 -0.439797 -0.0148573 -0.145844 -0.0108961 0 0 -3.4936 0 0 
273 1 273 0.41919 0.900455 0 0 -0.437659 -0.0195065 -0.14665 -0.0182254 0 0 -2.47736 0 0 
274 1 274 0.419179 0.940485 0 0 -0.425052 -0.0200651 -0.14279 -0.00607813 0 0 -2.55656 0 0 
275 1 275 0.419171 0.980514 0 0 -0.398437 -0.00126974 -0.128197 -0.0128898 0 0 -1.21507 0 0 
276 1 276 0.459983 0.019995 0 0 -0.0494265 -0.0855125 -0.0432416 -0.0748378 0 0 0.468811 0 0 
277 1 277 0.45995 0.0599854 0 0 -0.0722146 -0.0877996 -0.0512763 -0.0703449 0 0 1.06645 0 0 
278 1 278 0.459917 0.0999795 0 0 -0.0909883 -0.0661093 -0.0503435 -0.0586441 0 0 0.370563 0 0 
279 1 279 0.45989 0.139978 0 0 -0.120006 -0.0478578 -0.0537979 -0.0518214 0 0 0.0428415 0 0 
280 1 280 0.459866 0.179981 0 0 -0.158337 -0.0509722 -0.0670918 -0.04895 0 0 -0.391012 0 0 
281 1 281 0.459841 0.219986 0 0 -0.17861 -0.0351299 -0.0685119 -0.0602694 0 0 -0.725282 0 0 
282 1 282 0.459808 0.259995 0 0 -0.21493 -0.0501026 -0.084966 -0.0739282 0 0 -1.18017 0 0 
283 1 283 0.459767 0.300004 0 0 -0.246487 -0.0460624 -0.0937944 -0.0887561 0 0 -1.49821 0 0 
284 1 284 0.459719 0.340016 0 0 -0.282506 -0.0528865 -0.107544 -0.097515 0 0 -1.76692 0 0 
285 1 285 0.459665 0.380031 0 0 -0.308419 -0.0393639 -0.111519 -0.101157 0 0 -1.68326 0 0 
286 1 286 0.459611 0.42005 0 0 -0.344923 -0.0373356 -0.122585 -0.0939518 0 0 -1.53817 0 0 
287 1 287 0.459559 0.460073 0 0 -0.38575 -0.0198111 -0.130069 -0.0940985 0 0 -1.0219 0 0 
288 1 288 0.459509 0.500101 0 0 -0.440883 -0.0175277 -0.147043 -0.081979 0 0 -0.358739 0 0 
289 1 289 0.45946 0.540134 0 0 -0.470005 -0.00300581 -0.151727 -0.0861156 0 0 -0.0797769 0 0 
290 1 290 0.459412 0.580171 0 0 -0.467689 0.0195579 -0.143735 -0.0814745 0 0 -0.368866 0 0 
291 1 291 0.459367 0.620211 0 0 -0.47691 0.0237525 -0.145353 -0.0862003 0 0 -0.602375 0 0 
292 1 292 0.459322 0.660252 0 0 -0.500448 0.0161741 -0.155348 -0.0805585 0 0 -0.790372 0 0 
293 1 293 0.459276 0.700292 0 0 -0.522257 0.0042935 -0.166171 -0.0757507 0 0 -1.02397 0 0 
294 1 294 0.459233 0.740332 0 0 -0.536263 -0.0238785 -0.179719 -0.0627437 0 0 -1.46211 0 0 
295 1 295 0.459196 0.780367 0 0 -0.516444 -0.0249017 -0.173684 -0.049102 0 0 -2.11501 0 0 
296 1 296 0.459167 0.820401 0 0 -0.507619 -0.0526134 -0.179751 -0.0355317 0 0 -2.01231 0 0 
297 1 297 0.459146 0.86043 0 0 -0.492295 -0.0456233 -0.172589 -0.0214244 0 0 -2.05902 0 0 
298 1 298 0.459129 0.90046 0 0 -0.477581 -0.0448304 -0.167607 -0.0242396 0 0 -1.39852 0 0 
299 1 299 0.459117 0.940489 0 0 -0.451168 -0.0343865 -0.155775 -0.00765969 0 0 -1.55139 0 0 
300 1 300 0.459109 0.980518 0 0 -0.420222 -0.0111484 -0.138363 -0.0143354 0 0 -0.0118283 0 0 
301 1 301 0.49998 0.0199955 0 0 -0.0342832 -0.0739003 -0.0346647 -0.0790174 0 0 0.100661 0 0 
302 1 302 0.49994 0.0599862 0 0 -0.0562278 -0.080888 -0.0439355 -0.0827154 0 0 0.441921 0 0 
303 1 303 0.499904 0.0999802 0 0 -0.096237 -0.0703175 -0.0533776 -0.0724858 0 0 0.278997 0 0 
304 1 304 0.499872 0.139978 0 0 -0.1354 -0.0593932 -0.0624346 -0.0649178 0 0 0.307864 0 0 
305 1 305 0.499842 0.179981 0 0 -0.172252 -0.0558258 -0.0731124 -0.0605065 0 0 -0.215101 0 0 
306 1 306 0.499811 0.219987 0 0 -0.204238 -0.0435677 -0.07944 -0.0690384 0 0 -0.486919 0 0 
307 1 307 0.499774 0.259997 0 0 -0.236621 -0.0471327 -0.0909713 -0.0836955 0 0 -0.789246 0 0 
308 1 308 0.499728 0.300009 0 0 -0.257562 -0.0372829 -0.0945284 -0.0980555 0 0 -1.28765 0 0 
309 1 309 0.499674 0.340023 0 0 -0.284876 -0.0423319 -0.104914 -0.107096 0 0 -2.05588 0 0 
310 1 310 0.499614 0.38004 0 0 -0.309935 -0.028683 -0.108574 -0.114827 0 0 -2.26865 0 0 
311 1 311 0.499552 0.42006 0 0 -0.351312 -0.0342492 -0.123644 -0.10971 0 0 -2.35257 0 0 
312 1 312 0.499489 0.460084 0 0 -0.367996 -0.00887061 -0.120858 -0.109471 0 0 -2.31882 0 0 
313 1 313 0.499427 0.500114 0 0 -0.376258 0.0168684 -0.115251 -0.10256 0 0 -2.16322 0 0 
314 1 314 0.499366 0.540147 0 0 -0.401299 0.0279935 -0.119713 -0.105821 0 0 -2.06148 0 0 
315 1 315 0.499305 0.580183 0 0 -0.439075 0.0286425 -0.13163 -0.100239 0 0 -1.85074 0 0 
316 1 316 0.499244 0.620221 0 0 -0.453328 0.0323924 -0.135004 -0.0991916 0 0 -2.01147 0 0 
317 1 317 0.499189 0.66026 0 0 -0.440076 0.0301364 -0.131474 -0.0853739 0 0 -3.09707 0 0 
318 1 318 0.499144 0.700298 0 0 -0.412731 0.0448792 -0.117963 -0.0791007 0 0 -4.35448 0 0 
319 1 319 0.49911 0.740335 0 0 -0.40923 0.0254475 -0.123075 -0.0651662 0 0 -5.0075 0 0 
320 1 320 0.499086 0.780369 0 0 -0.40644 0.0166181 -0.125018 -0.0508225 0 0 -5.2467 0 0 
321 1 321 0.49907 0.820402 0 0 -0.413927 -0.0103027 -0.136063 -0.0410471 0 0 -4.4593 0 0 
322 1 322 0.499058 0.860431 0 0 -0.410338 -0.0102928 -0.134913 -0.0264054 0 0 -3.96156 0 0 
323 1 323 0.49905 0.90046 0 0 -0.410252 -0.0145907 -0.136265 -0.0272978 0 0 -2.91394 0 0 
324 1 324 0.499043 0.940489 0 0 -0.409225 -0.0103344 -0.134575 -0.00866739 0 0 -2.28767 0 0 
325 1 325 0.49904 0.98052 0 0 -0.401098 0.000626182 -0.128438 -0.0134564 0 0 -0.271784 0 0 