ITEM: TIMESTEP
0
ITEM: NUMBER OF ATOMS
6875
ITEM: BOX BOUNDS sm sm sm
0 4
0 2
0 0
ITEM: ATOMS id type tag x y z damage s11 s22 s33 s12 s13 s23 vx T ienergy 
1 1 1 0.019995 0.0199937 0 0 -0.123904 -0.135912 -0.0833006 -0.0466077 0 0 0.114962 0 0 
2 1 2 0.0199891 0.0599846 0 0 -0.197722 -0.130743 -0.105329 -0.0709068 0 0 0.598155 0 0 
3 1 3 0.0199863 0.0999799 0 0 -0.233744 -0.130942 -0.116955 -0.0916574 0 0 0.773044 0 0 
4 1 4 0.0199829 0.139977 0 0 -0.277698 -0.139646 -0.13386 -0.101884 0 0 0.713451 0 0 
5 1 5 0.0199804 0.179977 0 0 -0.312757 -0.145425 -0.146975 -0.101196 0 0 0.826489 0 0 
6 1 6 0.0199786 0.219978 0 0 -0.33806 -0.151077 -0.156917 -0.0971074 0 0 0.809664 0 0 
7 1 7 0.0199772 0.25998 0 0 -0.358126 -0.156733 -0.165179 -0.0886719 0 0 0.804586 0 0 
8 1 8 0.0199763 0.299982 0 0 -0.371836 -0.161411 -0.171087 -0.078982 0 0 0.788089 0 0 
9 1 9 0.0199757 0.339984 0 0 -0.382048 -0.165968 -0.175832 -0.0687387 0 0 0.771226 0 0 
10 1 10 0.0199752 0.379986 0 0 -0.389391 -0.168947 -0.179149 -0.05851 0 0 0.743594 0 0 
11 1 11 0.0199748 0.419989 0 0 -0.396944 -0.17402 -0.183206 -0.0487844 0 0 0.714367 0 0 
12 1 12 0.0199744 0.459991 0 0 -0.403024 -0.175822 -0.185739 -0.0393169 0 0 0.671196 0 0 
13 1 13 0.0199739 0.499993 0 0 -0.412719 -0.183432 -0.1913 -0.0306501 0 0 0.624948 0 0 
14 1 14 0.0199732 0.539995 0 0 -0.420624 -0.184033 -0.194034 -0.0220188 0 0 0.562496 0 0 
15 1 15 0.0199725 0.579997 0 0 -0.436249 -0.196645 -0.203111 -0.0141759 0 0 0.499352 0 0 
16 1 16 0.0199714 0.619999 0 0 -0.448232 -0.194907 -0.206404 -0.00587581 0 0 0.425069 0 0 
17 1 17 0.0199701 0.660001 0 0 -0.474032 -0.215561 -0.22134 0.00235627 0 0 0.342468 0 0 
18 1 18 0.0199684 0.700004 0 0 -0.492385 -0.208561 -0.22499 0.0119453 0 0 0.276442 0 0 
19 1 19 0.0199663 0.740007 0 0 -0.532903 -0.240381 -0.248256 0.0243333 0 0 0.168467 0 0 
20 1 20 0.0199634 0.780011 0 0 -0.561996 -0.223701 -0.25225 0.0383664 0 0 0.142237 0 0 
21 1 21 0.0199608 0.820017 0 0 -0.611472 -0.265017 -0.281465 0.0674343 0 0 -0.0917601 0 0 
22 1 22 0.0199564 0.860024 0 0 -0.660003 -0.232741 -0.286697 0.0844412 0 0 0.435635 0 0 
23 1 23 0.0199521 0.900035 0 0 -0.724072 -0.300152 -0.329032 0.154726 0 0 -0.98743 0 0 
24 1 24 0.0199494 0.940049 0 0 -0.744971 -0.195336 -0.302008 0.180103 0 0 1.29519 0 0 
25 1 25 0.0199229 0.980083 0 0 -1.07887 -0.273688 -0.434876 0.278866 0 0 -0.961472 0 0 
26 1 26 0.0599898 0.0199869 0 0 -0.110724 -0.217963 -0.1054 -0.0469186 0 0 0.687302 0 0 
27 1 27 0.0599738 0.0599644 0 0 -0.141399 -0.180935 -0.103361 -0.0455112 0 0 1.73552 0 0 
28 1 28 0.059962 0.0999493 0 0 -0.209115 -0.169243 -0.121344 -0.0683177 0 0 2.08057 0 0 
29 1 29 0.0599511 0.139941 0 0 -0.255787 -0.151518 -0.130637 -0.0797913 0 0 2.2447 0 0 
30 1 30 0.0599425 0.179938 0 0 -0.296201 -0.143611 -0.141075 -0.0814358 0 0 2.32772 0 0 
31 1 31 0.0599358 0.219939 0 0 -0.330892 -0.139188 -0.150796 -0.0808522 0 0 2.23862 0 0 
32 1 32 0.0599311 0.259943 0 0 -0.35586 -0.13923 -0.158829 -0.0752418 0 0 2.18724 0 0 
33 1 33 0.0599278 0.299948 0 0 -0.373891 -0.14038 -0.164991 -0.0688882 0 0 2.09393 0 0 
34 1 34 0.0599255 0.339954 0 0 -0.388523 -0.145344 -0.171286 -0.0613203 0 0 2.01806 0 0 
35 1 35 0.0599239 0.379961 0 0 -0.398217 -0.147013 -0.174937 -0.0536229 0 0 1.92485 0 0 
36 1 36 0.0599225 0.419967 0 0 -0.409729 -0.155868 -0.181482 -0.0459505 0 0 1.8374 0 0 
37 1 37 0.0599211 0.459973 0 0 -0.416227 -0.154932 -0.183269 -0.0382557 0 0 1.73173 0 0 
38 1 38 0.0599195 0.49998 0 0 -0.430586 -0.169481 -0.192559 -0.0308957 0 0 1.62498 0 0 
39 1 39 0.0599176 0.539986 0 0 -0.4364 -0.162852 -0.192297 -0.0234669 0 0 1.4982 0 0 
40 1 40 0.0599152 0.579992 0 0 -0.458623 -0.186565 -0.207063 -0.0160566 0 0 1.35578 0 0 
41 1 41 0.059912 0.619998 0 0 -0.464931 -0.169208 -0.203511 -0.00886128 0 0 1.207 0 0 
42 1 42 0.0599079 0.660005 0 0 -0.500757 -0.206064 -0.22688 0.000194422 0 0 0.989084 0 0 
43 1 43 0.0599024 0.700012 0 0 -0.509309 -0.169968 -0.218023 0.00733387 0 0 0.850982 0 0 
44 1 44 0.0598957 0.740023 0 0 -0.565216 -0.222256 -0.252821 0.0230313 0 0 0.482394 0 0 
45 1 45 0.0598868 0.780034 0 0 -0.576151 -0.156789 -0.235279 0.0289021 0 0 0.536867 0 0 
46 1 46 0.0598766 0.820053 0 0 -0.665058 -0.223013 -0.285193 0.0660922 0 0 -0.227754 0 0 
47 1 47 0.059864 0.860074 0 0 -0.661627 -0.119921 -0.250915 0.0614342 0 0 0.67008 0 0 
48 1 48 0.0598497 0.900106 0 0 -0.78126 -0.180812 -0.309015 0.145519 0 0 -0.887553 0 0 
49 1 49 0.0598318 0.940147 0 0 -0.838881 -0.0579694 -0.288017 0.116983 0 0 1.19986 0 0 
50 1 50 0.0597806 0.980209 0 0 -0.803981 0.0406046 -0.245068 0.0625277 0 0 -1.12857 0 0 
51 1 51 0.09999 0.019986 0 0 -0.0976444 -0.222774 -0.102747 -0.0434486 0 0 1.14194 0 0 
52 1 52 0.0999684 0.0599583 0 0 -0.116337 -0.220925 -0.108152 -0.0521068 0 0 2.58738 0 0 
53 1 53 0.0999458 0.0999354 0 0 -0.165462 -0.195145 -0.115645 -0.0616775 0 0 3.27421 0 0 
54 1 54 0.0999254 0.139921 0 0 -0.216031 -0.163906 -0.121851 -0.0657238 0 0 3.6797 0 0 
55 1 55 0.0999083 0.179914 0 0 -0.268631 -0.150988 -0.134591 -0.0688833 0 0 3.58609 0 0 
56 1 56 0.0998949 0.219913 0 0 -0.309146 -0.135398 -0.142595 -0.0669204 0 0 3.42783 0 0 
57 1 57 0.0998852 0.259916 0 0 -0.343725 -0.132285 -0.152701 -0.0627872 0 0 3.25376 0 0 
58 1 58 0.0998784 0.299922 0 0 -0.369119 -0.128438 -0.159622 -0.0583421 0 0 3.04697 0 0 
59 1 59 0.0998735 0.33993 0 0 -0.391599 -0.133823 -0.168573 -0.0528453 0 0 2.88284 0 0 
60 1 60 0.0998699 0.379939 0 0 -0.406465 -0.133083 -0.173112 -0.0475118 0 0 2.70817 0 0 
61 1 61 0.099867 0.419948 0 0 -0.42445 -0.145042 -0.182733 -0.0419918 0 0 2.54428 0 0 
62 1 62 0.0998641 0.459958 0 0 -0.433474 -0.141082 -0.184361 -0.0364984 0 0 2.36073 0 0 
63 1 63 0.0998611 0.499968 0 0 -0.453111 -0.160302 -0.196849 -0.0309058 0 0 2.15961 0 0 
64 1 64 0.0998575 0.539977 0 0 -0.458551 -0.147764 -0.194568 -0.0255359 0 0 1.94007 0 0 
65 1 65 0.0998531 0.579987 0 0 -0.485228 -0.17651 -0.212384 -0.0193552 0 0 1.66437 0 0 
66 1 66 0.0998474 0.619997 0 0 -0.48904 -0.149602 -0.204959 -0.0146287 0 0 1.40935 0 0 
67 1 67 0.0998401 0.66001 0 0 -0.528618 -0.188792 -0.230285 -0.00627303 0 0 0.999694 0 0 
68 1 68 0.0998304 0.700023 0 0 -0.534269 -0.141669 -0.216949 -0.00348387 0 0 0.760595 0 0 
69 1 69 0.0998181 0.74004 0 0 -0.592268 -0.185734 -0.249774 0.0114579 0 0 0.106818 0 0 
70 1 70 0.0998024 0.78006 0 0 -0.603565 -0.118186 -0.231681 0.0106398 0 0 0.0928469 0 0 
71 1 71 0.0997828 0.820089 0 0 -0.676248 -0.144816 -0.263628 0.0367507 0 0 -0.786107 0 0 
72 1 72 0.0997612 0.860122 0 0 -0.705182 -0.0823076 -0.252826 0.0384527 0 0 -0.514879 0 0 
73 1 73 0.0997352 0.900169 0 0 -0.75889 -0.0361689 -0.25526 0.0623363 0 0 -0.629267 0 0 
74 1 74 0.0997025 0.940225 0 0 -0.781188 -0.0075757 -0.253234 0.0362165 0 0 -0.514872 0 0 
75 1 75 0.0996602 0.980279 0 0 -0.683508 0.00396667 -0.218106 0.0182947 0 0 -0.661712 0 0 
76 1 76 0.139991 0.0199863 0 0 -0.0909952 -0.214104 -0.0978304 -0.0354669 0 0 1.29109 0 0 
77 1 77 0.139968 0.0599585 0 0 -0.0943487 -0.218229 -0.10023 -0.05527 0 0 3.16527 0 0 
78 1 78 0.139937 0.0999332 0 0 -0.127217 -0.201196 -0.105312 -0.0639418 0 0 4.15158 0 0 
79 1 79 0.139907 0.139914 0 0 -0.179377 -0.178272 -0.114696 -0.0635948 0 0 4.51875 0 0 
80 1 80 0.13988 0.179903 0 0 -0.234901 -0.160026 -0.126663 -0.0635891 0 0 4.34933 0 0 
81 1 81 0.139858 0.219898 0 0 -0.282328 -0.139849 -0.135413 -0.0593044 0 0 4.04339 0 0 
82 1 82 0.139841 0.259899 0 0 -0.327812 -0.134905 -0.148431 -0.0549015 0 0 3.6522 0 0 
83 1 83 0.139829 0.299905 0 0 -0.361725 -0.126146 -0.156511 -0.0505271 0 0 3.27781 0 0 
84 1 84 0.13982 0.339913 0 0 -0.394265 -0.132227 -0.168918 -0.0461103 0 0 2.96321 0 0 
85 1 85 0.139814 0.379922 0 0 -0.416003 -0.128369 -0.174662 -0.0423328 0 0 2.66869 0 0 
86 1 86 0.139808 0.419933 0 0 -0.442224 -0.143015 -0.187794 -0.0385574 0 0 2.41063 0 0 
87 1 87 0.139803 0.459945 0 0 -0.455741 -0.136117 -0.189922 -0.0351378 0 0 2.1569 0 0 
88 1 88 0.139798 0.499957 0 0 -0.482026 -0.158597 -0.205596 -0.0314621 0 0 1.89362 0 0 
89 1 89 0.139792 0.539969 0 0 -0.490258 -0.142389 -0.203032 -0.0285021 0 0 1.63115 0 0 
90 1 90 0.139785 0.579983 0 0 -0.521599 -0.172135 -0.222672 -0.0242903 0 0 1.28977 0 0 
91 1 91 0.139777 0.619997 0 0 -0.527547 -0.141914 -0.214867 -0.0227029 0 0 0.986531 0 0 
92 1 92 0.139766 0.660014 0 0 -0.567515 -0.174364 -0.238155 -0.0168226 0 0 0.465875 0 0 
93 1 93 0.139752 0.700032 0 0 -0.576272 -0.129162 -0.226434 -0.0183498 0 0 0.140273 0 0 
94 1 94 0.139733 0.740056 0 0 -0.624803 -0.151037 -0.249079 -0.0088797 0 0 -0.614043 0 0 
95 1 95 0.13971 0.780084 0 0 -0.644612 -0.0999132 -0.239006 -0.0134911 0 0 -0.865492 0 0 
96 1 96 0.139682 0.82012 0 0 -0.6882 -0.0907711 -0.250085 -0.00087806 0 0 -1.51364 0 0 
97 1 97 0.139652 0.860162 0 0 -0.71855 -0.0470038 -0.245769 -0.00345502 0 0 -1.48596 0 0 
98 1 98 0.139617 0.900213 0 0 -0.741747 -0.0164743 -0.243409 -0.00444046 0 0 -1.46373 0 0 
99 1 99 0.139583 0.940267 0 0 -0.701457 0.0145548 -0.220473 -0.00988564 0 0 -1.04139 0 0 
100 1 100 0.139554 0.980319 0 0 -0.640577 -0.0111527 -0.209165 0.00300699 0 0 -0.37788 0 0 
101 1 101 0.179993 0.019988 0 0 -0.0783749 -0.187653 -0.0852935 -0.0255359 0 0 1.33457 0 0 
102 1 102 0.17997 0.0599628 0 0 -0.082455 -0.201022 -0.0908918 -0.0550995 0 0 3.27171 0 0 
103 1 103 0.179934 0.0999378 0 0 -0.111267 -0.201166 -0.100184 -0.0714451 0 0 4.41092 0 0 
104 1 104 0.179894 0.139916 0 0 -0.155766 -0.189069 -0.110583 -0.0711895 0 0 4.897 0 0 
105 1 105 0.179856 0.179901 0 0 -0.21166 -0.174228 -0.123762 -0.0693147 0 0 4.63135 0 0 
106 1 106 0.179825 0.219893 0 0 -0.266813 -0.155246 -0.135375 -0.0630099 0 0 4.13132 0 0 
107 1 107 0.1798 0.259891 0 0 -0.320913 -0.149012 -0.150747 -0.0569396 0 0 3.52002 0 0 
108 1 108 0.179781 0.299894 0 0 -0.363051 -0.136361 -0.160218 -0.0514433 0 0 2.93383 0 0 
109 1 109 0.179767 0.339901 0 0 -0.405146 -0.142538 -0.175726 -0.0466624 0 0 2.42996 0 0 
110 1 110 0.179755 0.37991 0 0 -0.432828 -0.134341 -0.181988 -0.043039 0 0 1.98428 0 0 
111 1 111 0.179746 0.419921 0 0 -0.466123 -0.150343 -0.197831 -0.0397652 0 0 1.60368 0 0 
112 1 112 0.179738 0.459934 0 0 -0.482453 -0.138996 -0.199432 -0.0372661 0 0 1.25186 0 0 
113 1 113 0.17973 0.499948 0 0 -0.512691 -0.162196 -0.216612 -0.0345442 0 0 0.896482 0 0 
114 1 114 0.179722 0.539962 0 0 -0.521329 -0.141343 -0.212684 -0.0330827 0 0 0.554743 0 0 
115 1 115 0.179712 0.579979 0 0 -0.553201 -0.168123 -0.231544 -0.0302408 0 0 0.116981 0 0 
116 1 116 0.1797 0.619996 0 0 -0.559384 -0.135086 -0.222908 -0.031032 0 0 -0.266182 0 0 
117 1 117 0.179685 0.660017 0 0 -0.595653 -0.157564 -0.241801 -0.0274157 0 0 -0.892676 0 0 
118 1 118 0.179666 0.70004 0 0 -0.60656 -0.11508 -0.231645 -0.0324722 0 0 -1.30445 0 0 
119 1 119 0.179641 0.74007 0 0 -0.644659 -0.121313 -0.245904 -0.0269195 0 0 -2.12434 0 0 
120 1 120 0.179612 0.780103 0 0 -0.661896 -0.0765631 -0.237054 -0.0365031 0 0 -2.40201 0 0 
121 1 121 0.179577 0.820144 0 0 -0.694875 -0.065512 -0.244107 -0.0283245 0 0 -3.0683 0 0 
122 1 122 0.179541 0.860189 0 0 -0.694329 -0.0218871 -0.2299 -0.0370505 0 0 -2.87122 0 0 
123 1 123 0.179503 0.900239 0 0 -0.695454 -0.0202504 -0.229735 -0.0353529 0 0 -2.40304 0 0 
124 1 124 0.179473 0.940288 0 0 -0.655251 0.00162265 -0.209775 -0.0134499 0 0 -2.22333 0 0 
125 1 125 0.179455 0.980336 0 0 -0.602135 -0.00726643 -0.195559 -0.013009 0 0 -0.719058 0 0 
126 1 126 0.219994 0.0199898 0 0 -0.0749753 -0.161908 -0.0759434 -0.0234123 0 0 1.0171 0 0 
127 1 127 0.219971 0.059968 0 0 -0.0882924 -0.185908 -0.0879155 -0.0611511 0 0 2.69734 0 0 
128 1 128 0.219931 0.0999449 0 0 -0.108605 -0.19539 -0.097476 -0.0814226 0 0 4.01439 0 0 
129 1 129 0.219884 0.139923 0 0 -0.14724 -0.197394 -0.110519 -0.0853316 0 0 4.55943 0 0 
130 1 130 0.219837 0.179905 0 0 -0.202172 -0.192018 -0.126427 -0.0851614 0 0 4.20161 0 0 
131 1 131 0.219795 0.219893 0 0 -0.258845 -0.175084 -0.139187 -0.0769145 0 0 3.56806 0 0 
132 1 132 0.21976 0.259887 0 0 -0.319175 -0.169614 -0.156806 -0.0689473 0 0 2.74357 0 0 
133 1 133 0.219733 0.299887 0 0 -0.367951 -0.153275 -0.167226 -0.0613451 0 0 1.94552 0 0 
134 1 134 0.219712 0.339892 0 0 -0.418384 -0.159193 -0.185332 -0.0547713 0 0 1.26154 0 0 
135 1 135 0.219695 0.3799 0 0 -0.451283 -0.145735 -0.19158 -0.0499064 0 0 0.678607 0 0 
136 1 136 0.219681 0.419912 0 0 -0.491456 -0.162467 -0.209871 -0.045739 0 0 0.202743 0 0 
137 1 137 0.219669 0.459925 0 0 -0.510806 -0.146013 -0.210802 -0.0429159 0 0 -0.204728 0 0 
138 1 138 0.219658 0.49994 0 0 -0.545805 -0.169521 -0.229615 -0.0400117 0 0 -0.59636 0 0 
139 1 139 0.219646 0.539956 0 0 -0.556614 -0.144572 -0.225067 -0.0391148 0 0 -0.949529 0 0 
140 1 140 0.219633 0.579975 0 0 -0.590667 -0.16842 -0.243689 -0.0367093 0 0 -1.41647 0 0 
141 1 141 0.219617 0.619995 0 0 -0.598997 -0.133587 -0.235165 -0.0392314 0 0 -1.81162 0 0 
142 1 142 0.219598 0.66002 0 0 -0.632826 -0.147845 -0.250632 -0.0366007 0 0 -2.50275 0 0 
143 1 143 0.219574 0.700048 0 0 -0.643641 -0.107022 -0.240979 -0.0449424 0 0 -2.92364 0 0 
144 1 144 0.219544 0.740081 0 0 -0.673581 -0.104147 -0.249685 -0.0401662 0 0 -3.8208 0 0 
145 1 145 0.219509 0.780119 0 0 -0.682167 -0.0658297 -0.240121 -0.0531729 0 0 -4.00551 0 0 
146 1 146 0.21947 0.820162 0 0 -0.696319 -0.0522991 -0.240321 -0.0464836 0 0 -4.5216 0 0 
147 1 147 0.219431 0.860208 0 0 -0.686798 -0.0311432 -0.230455 -0.047778 0 0 -4.31083 0 0 
148 1 148 0.219395 0.900255 0 0 -0.66239 -0.0272481 -0.221354 -0.0470709 0 0 -3.2566 0 0 
149 1 149 0.219371 0.9403 0 0 -0.619082 -0.0124652 -0.202678 -0.0122139 0 0 -2.99236 0 0 
150 1 150 0.219361 0.980343 0 0 -0.591304 -0.0312076 -0.199774 -0.00636993 0 0 -1.41743 0 0 
151 1 151 0.259993 0.0199908 0 0 -0.083673 -0.152034 -0.0755659 -0.0286158 0 0 0.47126 0 0 
152 1 152 0.259968 0.059972 0 0 -0.110546 -0.174463 -0.0913837 -0.0671702 0 0 1.61648 0 0 
153 1 153 0.259926 0.0999518 0 0 -0.130763 -0.193919 -0.104115 -0.0908216 0 0 2.99038 0 0 
154 1 154 0.259874 0.13993 0 0 -0.165256 -0.211634 -0.120873 -0.101761 0 0 3.61696 0 0 
155 1 155 0.259819 0.17991 0 0 -0.214768 -0.214758 -0.137773 -0.104916 0 0 3.34225 0 0 
156 1 156 0.259767 0.219895 0 0 -0.269687 -0.202173 -0.151368 -0.0966476 0 0 2.68686 0 0 
157 1 157 0.259722 0.259886 0 0 -0.332203 -0.198358 -0.170225 -0.0875043 0 0 1.72136 0 0 
158 1 158 0.259685 0.299883 0 0 -0.382262 -0.176779 -0.179376 -0.0772727 0 0 0.766435 0 0 
159 1 159 0.259656 0.339885 0 0 -0.436158 -0.180815 -0.197993 -0.0681459 0 0 -0.0844534 0 0 
160 1 160 0.259632 0.379892 0 0 -0.468986 -0.159084 -0.20156 -0.061024 0 0 -0.80809 0 0 
161 1 161 0.259613 0.419903 0 0 -0.510875 -0.173687 -0.219722 -0.0548947 0 0 -1.39601 0 0 
162 1 162 0.259597 0.459916 0 0 -0.527989 -0.149005 -0.217288 -0.050836 0 0 -1.88376 0 0 
163 1 163 0.259581 0.499932 0 0 -0.562281 -0.169394 -0.234872 -0.0468328 0 0 -2.34867 0 0 
164 1 164 0.259566 0.53995 0 0 -0.570294 -0.137963 -0.227341 -0.0458536 0 0 -2.75171 0 0 
165 1 165 0.259549 0.579972 0 0 -0.601395 -0.155566 -0.243005 -0.0430325 0 0 -3.29319 0 0 
166 1 166 0.259529 0.619995 0 0 -0.608483 -0.118313 -0.233303 -0.0467997 0 0 -3.71718 0 0 
167 1 167 0.259506 0.660024 0 0 -0.637481 -0.123113 -0.244173 -0.0439841 0 0 -4.4787 0 0 
168 1 168 0.259477 0.700055 0 0 -0.648262 -0.08715 -0.236074 -0.0542534 0 0 -4.85948 0 0 
169 1 169 0.259443 0.740093 0 0 -0.669103 -0.0750333 -0.238879 -0.04909 0 0 -5.71465 0 0 
170 1 170 0.259404 0.780133 0 0 -0.675925 -0.0526945 -0.233889 -0.06055 0 0 -5.79705 0 0 
171 1 171 0.259363 0.820178 0 0 -0.672399 -0.0364223 -0.227522 -0.0530586 0 0 -5.9769 0 0 
172 1 172 0.259326 0.860223 0 0 -0.653705 -0.0315861 -0.219956 -0.0452847 0 0 -5.61638 0 0 
173 1 173 0.259294 0.900266 0 0 -0.625344 -0.0403613 -0.213659 -0.0408826 0 0 -4.3145 0 0 
174 1 174 0.259276 0.940306 0 0 -0.582419 -0.0153051 -0.191807 -0.00488518 0 0 -4.03705 0 0 
175 1 175 0.25927 0.980347 0 0 -0.571973 -0.035902 -0.195069 -0.00282919 0 0 -2.76986 0 0 
176 1 176 0.299989 0.0199908 0 0 -0.106008 -0.161673 -0.0858235 -0.0455738 0 0 -0.274434 0 0 
177 1 177 0.29996 0.0599735 0 0 -0.149263 -0.174257 -0.103742 -0.0779547 0 0 0.0579937 0 0 
178 1 178 0.299917 0.099956 0 0 -0.168467 -0.19727 -0.117292 -0.100832 0 0 1.38192 0 0 
179 1 179 0.299862 0.139936 0 0 -0.193943 -0.224042 -0.134066 -0.118404 0 0 2.10693 0 0 
180 1 180 0.2998 0.179915 0 0 -0.232949 -0.23408 -0.149816 -0.125777 0 0 2.01635 0 0 
181 1 181 0.299739 0.219898 0 0 -0.279641 -0.2255 -0.162058 -0.11907 0 0 1.46664 0 0 
182 1 182 0.299684 0.259885 0 0 -0.337507 -0.222092 -0.179555 -0.10944 0 0 0.502962 0 0 
183 1 183 0.299637 0.299879 0 0 -0.384277 -0.194718 -0.185787 -0.096679 0 0 -0.485719 0 0 
184 1 184 0.2996 0.339879 0 0 -0.438969 -0.196247 -0.203857 -0.0846822 0 0 -1.39755 0 0 
185 1 185 0.299569 0.379884 0 0 -0.470482 -0.165479 -0.204097 -0.074655 0 0 -2.15898 0 0 
186 1 186 0.299544 0.419894 0 0 -0.514163 -0.177427 -0.221982 -0.0658425 0 0 -2.76918 0 0 
187 1 187 0.299523 0.459908 0 0 -0.530486 -0.144898 -0.21677 -0.0599333 0 0 -3.25179 0 0 
188 1 188 0.299503 0.499925 0 0 -0.565963 -0.161829 -0.233623 -0.0541995 0 0 -3.71603 0 0 
189 1 189 0.299484 0.539945 0 0 -0.574932 -0.126267 -0.225071 -0.0527529 0 0 -4.09817 0 0 
190 1 190 0.299463 0.579969 0 0 -0.605866 -0.137468 -0.238621 -0.0489773 0 0 -4.66152 0 0 
191 1 191 0.299439 0.619996 0 0 -0.615833 -0.101749 -0.230339 -0.0534678 0 0 -5.07573 0 0 
192 1 192 0.299411 0.660028 0 0 -0.640823 -0.096766 -0.236773 -0.0498164 0 0 -5.88499 0 0 
193 1 193 0.299378 0.700064 0 0 -0.653322 -0.0696867 -0.232084 -0.0603112 0 0 -6.25088 0 0 
194 1 194 0.29934 0.740105 0 0 -0.663762 -0.0497623 -0.229034 -0.0536436 0 0 -7.04937 0 0 
195 1 195 0.2993 0.780148 0 0 -0.666247 -0.0416654 -0.22723 -0.0611025 0 0 -7.04238 0 0 
196 1 196 0.299259 0.820192 0 0 -0.653033 -0.0310435 -0.219565 -0.0506993 0 0 -6.9564 0 0 
197 1 197 0.299226 0.860235 0 0 -0.627313 -0.033562 -0.212106 -0.0349253 0 0 -6.502 0 0 
198 1 198 0.2992 0.900275 0 0 -0.599333 -0.0548529 -0.209956 -0.0291395 0 0 -5.02195 0 0 
199 1 199 0.299185 0.940313 0 0 -0.563432 -0.0215992 -0.187727 0.003085 0 0 -4.84975 0 0 
200 1 200 0.299181 0.980352 0 0 -0.574772 -0.0442979 -0.198667 0.00414494 0 0 -4.25918 0 0 
201 1 201 0.339983 0.0199896 0 0 -0.137677 -0.191126 -0.105437 -0.0742246 0 0 -1.01196 0 0 
202 1 202 0.339946 0.059972 0 0 -0.195955 -0.185071 -0.1222 -0.0913864 0 0 -1.54007 0 0 
203 1 203 0.339901 0.0999566 0 0 -0.217643 -0.205818 -0.135824 -0.108351 0 0 -0.396186 0 0 
204 1 204 0.339845 0.139938 0 0 -0.23505 -0.235798 -0.151042 -0.131303 0 0 0.42531 0 0 
205 1 205 0.339779 0.179918 0 0 -0.260901 -0.25123 -0.164303 -0.142758 0 0 0.696282 0 0 
206 1 206 0.339711 0.219899 0 0 -0.29393 -0.24547 -0.173064 -0.138817 0 0 0.454383 0 0 
207 1 207 0.339647 0.259884 0 0 -0.341215 -0.241797 -0.187078 -0.129802 0 0 -0.334742 0 0 
208 1 208 0.339591 0.299875 0 0 -0.378258 -0.20761 -0.187996 -0.115167 0 0 -1.24259 0 0 
209 1 209 0.339545 0.339873 0 0 -0.426638 -0.203944 -0.202368 -0.100518 0 0 -2.16814 0 0 
210 1 210 0.339507 0.379876 0 0 -0.450257 -0.161533 -0.196327 -0.0875788 0 0 -2.97233 0 0 
211 1 211 0.339476 0.419886 0 0 -0.489123 -0.166905 -0.210547 -0.0760131 0 0 -3.65144 0 0 
212 1 212 0.33945 0.4599 0 0 -0.499497 -0.12433 -0.200196 -0.068297 0 0 -4.19427 0 0 
213 1 213 0.339426 0.499919 0 0 -0.530566 -0.133492 -0.213129 -0.0608773 0 0 -4.73921 0 0 
214 1 214 0.339403 0.539941 0 0 -0.537161 -0.0932828 -0.202323 -0.0591337 0 0 -5.18263 0 0 
215 1 215 0.339378 0.579968 0 0 -0.563614 -0.0944342 -0.211197 -0.0544571 0 0 -5.84407 0 0 
216 1 216 0.33935 0.619998 0 0 -0.575413 -0.0617456 -0.204481 -0.0595328 0 0 -6.30211 0 0 
217 1 217 0.339317 0.660034 0 0 -0.595773 -0.0471416 -0.206331 -0.0547686 0 0 -7.16177 0 0 
218 1 218 0.33928 0.700074 0 0 -0.611558 -0.0309733 -0.206208 -0.0645369 0 0 -7.47667 0 0 
219 1 219 0.339239 0.740117 0 0 -0.617749 -0.010328 -0.201562 -0.0554288 0 0 -8.13784 0 0 
220 1 220 0.339199 0.780163 0 0 -0.619105 -0.0150618 -0.20352 -0.0573425 0 0 -7.98558 0 0 
221 1 221 0.33916 0.820207 0 0 -0.60315 -0.0162875 -0.198785 -0.0446179 0 0 -7.5764 0 0 
222 1 222 0.339131 0.860248 0 0 -0.576658 -0.0224684 -0.192257 -0.0216379 0 0 -7.15438 0 0 
223 1 223 0.339111 0.900285 0 0 -0.557971 -0.0554096 -0.196839 -0.0161669 0 0 -5.82548 0 0 
224 1 224 0.339099 0.94032 0 0 -0.529815 -0.0131684 -0.174216 0.00495063 0 0 -5.87141 0 0 
225 1 225 0.339092 0.980359 0 0 -0.557298 -0.0359893 -0.19038 0.00560878 0 0 -6.06969 0 0 
226 1 226 0.379974 0.0199875 0 0 -0.170365 -0.232591 -0.129241 -0.112438 0 0 -1.58806 0 0 
227 1 227 0.379926 0.059968 0 0 -0.236599 -0.201984 -0.140681 -0.107451 0 0 -2.8983 0 0 
228 1 228 0.379878 0.0999537 0 0 -0.259628 -0.213691 -0.151836 -0.113905 0 0 -2.11522 0 0 
229 1 229 0.379822 0.139937 0 0 -0.265219 -0.236731 -0.161033 -0.13883 0 0 -1.2661 0 0 
230 1 230 0.379755 0.179919 0 0 -0.273172 -0.253554 -0.168992 -0.152862 0 0 -0.568206 0 0 
231 1 231 0.379683 0.219899 0 0 -0.286408 -0.248164 -0.171513 -0.152734 0 0 -0.39767 0 0 
232 1 232 0.379612 0.259883 0 0 -0.317686 -0.243843 -0.180175 -0.145537 0 0 -0.865748 0 0 
233 1 233 0.379549 0.299872 0 0 -0.341889 -0.203836 -0.175097 -0.130218 0 0 -1.54822 0 0 
234 1 234 0.379495 0.339867 0 0 -0.383487 -0.195706 -0.185851 -0.11387 0 0 -2.36295 0 0 
235 1 235 0.37945 0.37987 0 0 -0.402206 -0.144395 -0.175378 -0.0986742 0 0 -3.10068 0 0 
236 1 236 0.379414 0.419879 0 0 -0.440105 -0.144032 -0.18744 -0.084815 0 0 -3.76643 0 0 
237 1 237 0.379382 0.459893 0 0 -0.450742 -0.0951919 -0.175163 -0.0757183 0 0 -4.31024 0 0 
238 1 238 0.379354 0.499914 0 0 -0.482396 -0.0970579 -0.185935 -0.0669709 0 0 -4.90261 0 0 
239 1 239 0.379326 0.539938 0 0 -0.493502 -0.0567343 -0.176546 -0.0653465 0 0 -5.38794 0 0 
240 1 240 0.379296 0.579968 0 0 -0.520279 -0.0489613 -0.182652 -0.0600543 0 0 -6.13828 0 0 
241 1 241 0.379264 0.620003 0 0 -0.538834 -0.0230791 -0.180297 -0.0658109 0 0 -6.63856 0 0 
242 1 242 0.379227 0.660042 0 0 -0.55771 -0.00213179 -0.179632 -0.059786 0 0 -7.55423 0 0 
243 1 243 0.379186 0.700086 0 0 -0.576299 0.00327301 -0.183868 -0.0679719 0 0 -7.85345 0 0 
244 1 244 0.379143 0.740131 0 0 -0.578992 0.0198887 -0.179394 -0.056365 0 0 -8.39847 0 0 
245 1 245 0.379103 0.780178 0 0 -0.577515 0.00662403 -0.183183 -0.051666 0 0 -8.20792 0 0 
246 1 246 0.379067 0.820221 0 0 -0.563389 -0.00998135 -0.18398 -0.0377237 0 0 -7.57819 0 0 
247 1 247 0.379043 0.86026 0 0 -0.53886 -0.0140501 -0.177405 -0.010943 0 0 -7.26456 0 0 
248 1 248 0.379027 0.900296 0 0 -0.536486 -0.0575721 -0.190628 -0.00656636 0 0 -6.27225 0 0 
249 1 249 0.379015 0.94033 0 0 -0.522417 -0.0119396 -0.171444 0.00112702 0 0 -6.53312 0 0 
250 1 250 0.379005 0.980369 0 0 -0.563896 -0.0340605 -0.19188 0.00271843 0 0 -7.36136 0 0 
251 1 251 0.419964 0.0199852 0 0 -0.194341 -0.274034 -0.150249 -0.155033 0 0 -1.78239 0 0 
252 1 252 0.419902 0.0599626 0 0 -0.260378 -0.220195 -0.154166 -0.124427 0 0 -3.54188 0 0 
253 1 253 0.419851 0.0999482 0 0 -0.286999 -0.219481 -0.162488 -0.116987 0 0 -3.26494 0 0 
254 1 254 0.419796 0.139934 0 0 -0.283517 -0.227682 -0.164003 -0.13931 0 0 -2.49119 0 0 
255 1 255 0.419729 0.179918 0 0 -0.27623 -0.24459 -0.167095 -0.153817 0 0 -1.36707 0 0 
256 1 256 0.419656 0.219899 0 0 -0.269342 -0.238512 -0.162929 -0.158296 0 0 -0.721782 0 0 
257 1 257 0.419582 0.259882 0 0 -0.283338 -0.234973 -0.166289 -0.154252 0 0 -0.768413 0 0 
258 1 258 0.419513 0.29987 0 0 -0.292697 -0.191119 -0.155208 -0.140035 0 0 -1.17286 0 0 
259 1 259 0.419453 0.339864 0 0 -0.324035 -0.178093 -0.16109 -0.12351 0 0 -1.89591 0 0 
260 1 260 0.419401 0.379864 0 0 -0.335061 -0.118758 -0.145573 -0.107268 0 0 -2.65005 0 0 
261 1 261 0.419358 0.419873 0 0 -0.367957 -0.109713 -0.153234 -0.0921385 0 0 -3.43186 0 0 
262 1 262 0.419321 0.459888 0 0 -0.377462 -0.0553336 -0.138822 -0.0825965 0 0 -4.11466 0 0 
263 1 263 0.419287 0.49991 0 0 -0.407374 -0.0468879 -0.145715 -0.0733025 0 0 -4.88263 0 0 
264 1 264 0.419254 0.539937 0 0 -0.423079 -0.00768773 -0.13817 -0.0724449 0 0 -5.51222 0 0 
265 1 265 0.41922 0.57997 0 0 -0.449153 0.0099697 -0.140873 -0.0668438 0 0 -6.42594 0 0 
266 1 266 0.419182 0.620009 0 0 -0.473671 0.0286826 -0.142737 -0.0731821 0 0 -7.00975 0 0 
267 1 267 0.41914 0.660052 0 0 -0.491675 0.0527834 -0.140779 -0.0657111 0 0 -7.96944 0 0 
268 1 268 0.419097 0.700098 0 0 -0.512398 0.0487194 -0.148739 -0.0713053 0 0 -8.22609 0 0 
269 1 269 0.419052 0.740146 0 0 -0.51585 0.0547474 -0.147912 -0.0573849 0 0 -8.57347 0 0 
270 1 270 0.419014 0.780192 0 0 -0.512405 0.0371987 -0.152442 -0.0460576 0 0 -8.32354 0 0 
271 1 271 0.418982 0.820234 0 0 -0.505071 0.0031569 -0.161021 -0.0321061 0 0 -7.53895 0 0 
272 1 272 0.418961 0.860272 0 0 -0.484522 0.005503 -0.153667 -0.00525468 0 0 -7.44325 0 0 
273 1 273 0.418948 0.900307 0 0 -0.496699 -0.041354 -0.172631 -0.00274135 0 0 -7.02454 0 0 
274 1 274 0.418934 0.940341 0 0 -0.492665 0.00347749 -0.156933 -0.00853558 0 0 -7.52984 0 0 
275 1 275 0.418918 0.98038 0 0 -0.536747 -0.0146648 -0.176923 -0.00529304 0 0 -8.70033 0 0 
276 1 276 0.459954 0.0199834 0 0 -0.198387 -0.300561 -0.160069 -0.194636 0 0 -1.53281 0 0 
277 1 277 0.459878 0.0599576 0 0 -0.252167 -0.230779 -0.154929 -0.14102 0 0 -3.35812 0 0 
278 1 278 0.459821 0.099942 0 0 -0.282209 -0.216312 -0.159931 -0.119352 0 0 -3.74911 0 0 
279 1 279 0.459767 0.139929 0 0 -0.273146 -0.203317 -0.152845 -0.134175 0 0 -3.22712 0 0 
280 1 280 0.459704 0.179916 0 0 -0.256121 -0.219463 -0.152563 -0.146531 0 0 -1.8315 0 0 
281 1 281 0.459633 0.219899 0 0 -0.232218 -0.211641 -0.142374 -0.155813 0 0 -0.799162 0 0 
282 1 282 0.459558 0.259883 0 0 -0.231917 -0.211919 -0.142367 -0.156073 0 0 -0.428876 0 0 
283 1 283 0.459485 0.29987 0 0 -0.230351 -0.169073 -0.128107 -0.145042 0 0 -0.535509 0 0 
284 1 284 0.459419 0.339863 0 0 -0.256717 -0.155042 -0.132067 -0.130287 0 0 -1.13081 0 0 
285 1 285 0.459361 0.379862 0 0 -0.269058 -0.0949392 -0.116733 -0.114621 0 0 -1.8612 0 0 
286 1 286 0.459311 0.41987 0 0 -0.305122 -0.0800771 -0.123539 -0.0994323 0 0 -2.7339 0 0 
287 1 287 0.459268 0.459885 0 0 -0.323027 -0.0264307 -0.112066 -0.0902675 0 0 -3.55304 0 0 
288 1 288 0.459228 0.499909 0 0 -0.35686 -0.00869316 -0.117232 -0.0809154 0 0 -4.52271 0 0 
289 1 289 0.459189 0.539938 0 0 -0.382034 0.0261764 -0.11412 -0.0811212 0 0 -5.33284 0 0 
290 1 290 0.459149 0.579974 0 0 -0.410065 0.0519326 -0.11485 -0.0752989 0 0 -6.43236 0 0 
291 1 291 0.459105 0.620016 0 0 -0.441172 0.0633125 -0.121183 -0.0819553 0 0 -7.09547 0 0 
292 1 292 0.459059 0.660062 0 0 -0.460131 0.0857485 -0.120066 -0.0729051 0 0 -8.04976 0 0 
293 1 293 0.459012 0.700111 0 0 -0.480143 0.0757547 -0.1297 -0.0750284 0 0 -8.23168 0 0 
294 1 294 0.458967 0.740159 0 0 -0.485073 0.0671073 -0.134059 -0.0590831 0 0 -8.34503 0 0 
295 1 295 0.458931 0.780205 0 0 -0.477348 0.0512043 -0.136686 -0.0416066 0 0 -8.07133 0 0 
296 1 296 0.458903 0.820246 0 0 -0.477671 0.00265209 -0.152382 -0.0288331 0 0 -7.22191 0 0 
297 1 297 0.458884 0.860283 0 0 -0.463713 0.0124548 -0.144751 -0.0056162 0 0 -7.33471 0 0 
298 1 298 0.458871 0.900318 0 0 -0.490361 -0.0315018 -0.16743 -0.00470116 0 0 -7.48525 0 0 
299 1 299 0.458854 0.940353 0 0 -0.497799 0.00399727 -0.158415 -0.0205263 0 0 -8.06171 0 0 
300 1 300 0.458833 0.980392 0 0 -0.5376 -0.0104768 -0.175851 -0.0151005 0 0 -9.10482 0 0 
301 1 301 0.499947 0.0199828 0 0 -0.180829 -0.30301 -0.155215 -0.223899 0 0 -0.790489 0 0 
302 1 302 0.499858 0.0599545 0 0 -0.218 -0.233452 -0.144813 -0.156436 0 0 -2.18102 0 0 
303 1 303 0.499794 0.0999368 0 0 -0.254872 -0.209062 -0.148822 -0.123379 0 0 -3.29736 0 0 
304 1 304 0.499739 0.139925 0 0 -0.247729 -0.173528 -0.135116 -0.126174 0 0 -3.24461 0 0 
305 1 305 0.49968 0.179915 0 0 -0.230652 -0.189408 -0.134732 -0.133725 0 0 -1.89666 0 0 
306 1 306 0.499613 0.219901 0 0 -0.1973 -0.179437 -0.120823 -0.147406 0 0 -0.715684 0 0 
307 1 307 0.499539 0.259887 0 0 -0.189196 -0.187284 -0.12074 -0.152821 0 0 -0.0539243 0 0 
308 1 308 0.499464 0.299873 0 0 -0.181155 -0.150044 -0.106206 -0.147087 0 0 0.0400703 0 0 
309 1 309 0.499393 0.339865 0 0 -0.203726 -0.136916 -0.109236 -0.136056 0 0 -0.534032 0 0 
310 1 310 0.499328 0.379863 0 0 -0.217885 -0.0797193 -0.0954242 -0.122544 0 0 -1.3821 0 0 
311 1 311 0.499272 0.41987 0 0 -0.254425 -0.0569916 -0.0998569 -0.108425 0 0 -2.50451 0 0 
312 1 312 0.499221 0.459885 0 0 -0.280461 -0.00590997 -0.0918198 -0.10037 0 0 -3.58938 0 0 
313 1 313 0.499173 0.49991 0 0 -0.317642 0.0223972 -0.0946669 -0.0913176 0 0 -4.82695 0 0 
314 1 314 0.499127 0.539941 0 0 -0.353373 0.0520503 -0.0966173 -0.0925574 0 0 -5.80839 0 0 
315 1 315 0.499079 0.57998 0 0 -0.384504 0.0836655 -0.0964616 -0.0860179 0 0 -7.02848 0 0 
316 1 316 0.49903 0.620025 0 0 -0.419258 0.0902434 -0.105504 -0.091885 0 0 -7.69098 0 0 
317 1 317 0.498979 0.660073 0 0 -0.437303 0.107398 -0.10579 -0.0803731 0 0 -8.55163 0 0 
318 1 318 0.498931 0.700123 0 0 -0.449536 0.0976837 -0.112834 -0.0776994 0 0 -8.62331 0 0 
319 1 319 0.498886 0.740172 0 0 -0.452855 0.0740287 -0.121493 -0.0601032 0 0 -8.47589 0 0 
320 1 320 0.498853 0.780216 0 0 -0.437562 0.0652988 -0.119387 -0.0378171 0 0 -8.20799 0 0 
321 1 321 0.498828 0.820256 0 0 -0.442872 0.009576 -0.138983 -0.0274995 0 0 -7.40622 0 0 
322 1 322 0.49881 0.860292 0 0 -0.434335 0.0266966 -0.130744 -0.0113785 0 0 -7.72906 0 0 
323 1 323 0.498795 0.900329 0 0 -0.466769 -0.00562657 -0.151539 -0.0114564 0 0 -8.41882 0 0 
324 1 324 0.498774 0.940365 0 0 -0.47843 0.0167837 -0.148087 -0.0314689 0 0 -8.96074 0 0 
325 1 325 0.498749 0.980405 0 0 -0.503957 0.00620094 -0.159685 -0.0236793 0 0 -9.50581 0 0 
326 1 326 0.539943 0.0199836 0 0 -0.139808 -0.276275 -0.133456 -0.236983 0 0 0.200992 0 0 
327 1 327 0.539845 0.0599542 0 0 -0.153972 -0.222465 -0.120727 -0.170548 0 0 -0.498599 0 0 
328 1 328 0.539773 0.0999341 0 0 -0.197889 -0.193454 -0.125511 -0.132467 0 0 -2.33038 0 0 
329 1 329 0.539715 0.139922 0 0 -0.202906 -0.14011 -0.109997 -0.120642 0 0 -2.88944 0 0 
330 1 330 0.539659 0.179914 0 0 -0.201014 -0.158437 -0.115273 -0.121251 0 0 -1.89904 0 0 
331 1 331 0.539596 0.219903 0 0 -0.17222 -0.147842 -0.102631 -0.137795 0 0 -0.816485 0 0 