ITEM: TIMESTEP
0
ITEM: NUMBER OF ATOMS
7127
ITEM: BOX BOUNDS sm sm sm
0 4
0 2
0 0
ITEM: ATOMS id type tag x y z vx 
0 1 0 0 0 0 0 
1 1 1 0 0.04 0 0 
2 1 2 0 0.08 0 0 
3 1 3 0 0.12 0 0 
4 1 4 0 0.16 0 0 
5 1 5 0 0.2 0 0 
6 1 6 0 0.24 0 0 
7 1 7 0 0.28 0 0 
8 1 8 0 0.32 0 0 
9 1 9 0 0.36 0 0 
10 1 10 0 0.4 0 0 
11 1 11 0 0.44 0 0 
12 1 12 0 0.48 0 0 
13 1 13 0 0.52 0 0 
14 1 14 0 0.56 0 0 
15 1 15 0 0.6 0 0 
16 1 16 0 0.64 0 0 
17 1 17 0 0.68 0 0 
18 1 18 0 0.72 0 0 
19 1 19 0 0.76 0 0 
20 1 20 0 0.8 0 0 
21 1 21 0 0.84 0 0 
22 1 22 0 0.88 0 0 
23 1 23 0 0.92 0 0 
24 1 24 0 0.96 0 0 
25 1 25 0 1 0 0 
26 1 26 0.04 0 0 0 
27 1 27 0.0400044 0.0400028 0 0.139807 
28 1 28 0.0400057 0.0800033 0 0.105664 
29 1 29 0.0400057 0.120001 0 -0.0483658 
30 1 30 0.0400063 0.159995 0 -0.00269384 
31 1 31 0.0400042 0.199988 0 0.16435 
32 1 32 0.0400044 0.23998 0 0.353606 
33 1 33 0.0400021 0.279974 0 0.484562 
34 1 34 0.0400007 0.319971 0 0.411539 
35 1 35 0.0399967 0.35997 0 0.296916 
36 1 36 0.0399946 0.399974 0 0.191669 
37 1 37 0.0399906 0.439979 0 0.0499781 
38 1 38 0.039989 0.479984 0 -0.0173896 
39 1 39 0.0399869 0.519987 0 0.0500861 
40 1 40 0.0399848 0.559988 0 0.0172819 
41 1 41 0.039984 0.599986 0 0.00364541 
42 1 42 0.0399835 0.639984 0 0.0375892 
43 1 43 0.03998 0.679984 0 -0.112359 
44 1 44 0.039984 0.719987 0 -0.0614407 
45 1 45 0.0399805 0.759993 0 0.0702875 
46 1 46 0.039984 0.8 0 -0.0852776 
47 1 47 0.0399879 0.840006 0 -0.0326059 
48 1 48 0.0399903 0.880011 0 0.0527472 
49 1 49 0.039989 0.920017 0 0.0413431 
50 1 50 0.0399886 0.960017 0 -0.0473802 
51 1 51 0.039979 1.00003 0 -0.179657 
52 1 52 0.08 0 0 0 
53 1 53 0.0800068 0.0400023 0 0.221837 
54 1 54 0.0800112 0.0800006 0 0.147829 
55 1 55 0.0800145 0.119997 0 -0.115305 
56 1 56 0.0800173 0.159989 0 0.0431828 
57 1 57 0.0800157 0.19998 0 0.43484 
58 1 58 0.0800162 0.23997 0 0.790564 
59 1 59 0.0800086 0.279961 0 1.0523 
60 1 60 0.080004 0.319956 0 0.928545 
61 1 61 0.0799928 0.359954 0 0.617676 
62 1 62 0.0799869 0.399958 0 0.232316 
63 1 63 0.0799771 0.439963 0 -0.0755279 
64 1 64 0.0799751 0.479971 0 -0.17527 
65 1 65 0.0799714 0.519975 0 0.00394499 
66 1 66 0.0799716 0.559976 0 0.0427742 
67 1 67 0.0799687 0.599975 0 0.00694415 
68 1 68 0.0799676 0.639974 0 -0.0665117 
69 1 69 0.0799595 0.679975 0 -0.298595 
70 1 70 0.0799604 0.71998 0 -0.282652 
71 1 71 0.0799562 0.75999 0 -0.165049 
72 1 72 0.0799623 0.8 0 -0.0885803 
73 1 73 0.0799686 0.84001 0 0.159962 
74 1 74 0.0799718 0.880018 0 0.00943494 
75 1 75 0.0799789 0.920024 0 -0.0739602 
76 1 76 0.0799717 0.960031 0 0.0436164 
77 1 77 0.0799697 1.00003 0 -0.0669694 
78 1 78 0.12 0 0 0 
79 1 79 0.120009 0.0399996 0 0.277343 
80 1 80 0.120017 0.0799971 0 0.181298 
81 1 81 0.120024 0.119991 0 -0.0661748 
82 1 82 0.12003 0.159985 0 0.155852 
83 1 83 0.120031 0.199976 0 0.645588 
84 1 84 0.12003 0.239968 0 1.14523 
85 1 85 0.12002 0.279958 0 1.54128 
86 1 86 0.12001 0.319954 0 1.39081 
87 1 87 0.119993 0.35995 0 0.930761 
88 1 88 0.119979 0.399954 0 0.303139 
89 1 89 0.119967 0.439955 0 -0.14621 
90 1 90 0.119961 0.479962 0 -0.29392 
91 1 91 0.119961 0.519964 0 -0.13296 
92 1 92 0.119959 0.559968 0 -0.0663224 
93 1 93 0.119958 0.599967 0 -0.127728 
94 1 94 0.119952 0.63997 0 -0.321682 
95 1 95 0.119944 0.679972 0 -0.596427 
96 1 96 0.119938 0.71998 0 -0.522184 
97 1 97 0.119932 0.75999 0 -0.456107 
98 1 98 0.119939 0.800001 0 -0.219185 
99 1 99 0.119946 0.840012 0 0.257273 
100 1 100 0.119952 0.880021 0 -0.0017523 
101 1 101 0.119962 0.920028 0 -0.0946516 
102 1 102 0.11996 0.960031 0 0.199664 
103 1 103 0.119954 1.00004 0 0.141828 
104 1 104 0.16 0 0 0 
105 1 105 0.160011 0.039997 0 0.247047 
106 1 106 0.160023 0.079993 0 0.175403 
107 1 107 0.160034 0.119988 0 0.00539755 
108 1 108 0.160042 0.159983 0 0.242412 
109 1 109 0.160045 0.199976 0 0.857628 
110 1 110 0.160042 0.23997 0 1.54216 
111 1 111 0.160032 0.279964 0 1.97408 
112 1 112 0.160016 0.31996 0 1.76572 
113 1 113 0.159995 0.359957 0 1.14853 
114 1 114 0.159974 0.399957 0 0.321725 
115 1 115 0.159959 0.439957 0 -0.282786 
116 1 116 0.15995 0.47996 0 -0.44697 
117 1 117 0.159947 0.519962 0 -0.294094 
118 1 118 0.159946 0.559965 0 -0.189924 
119 1 119 0.159942 0.599966 0 -0.237298 
120 1 120 0.159934 0.63997 0 -0.525447 
121 1 121 0.159921 0.679975 0 -0.864197 
122 1 122 0.159912 0.71998 0 -0.81879 
123 1 123 0.159903 0.759991 0 -0.660609 
124 1 124 0.15991 0.800001 0 -0.397669 
125 1 125 0.159919 0.840013 0 0.0141707 
126 1 126 0.159929 0.880023 0 -0.0790406 
127 1 127 0.159943 0.92003 0 0.0493107 
128 1 128 0.15994 0.96004 0 0.325078 
129 1 129 0.159934 1.00005 0 0.194462 
130 1 130 0.2 0 0 0 
131 1 131 0.200011 0.0399941 0 0.179123 
132 1 132 0.200027 0.0799902 0 0.105541 
133 1 133 0.200041 0.119987 0 0.0194957 
134 1 134 0.200051 0.159982 0 0.316878 
135 1 135 0.200056 0.199979 0 1.0405 
136 1 136 0.200053 0.239977 0 1.77189 
137 1 137 0.200041 0.279973 0 2.14054 
138 1 138 0.200023 0.319971 0 1.94974 
139 1 139 0.199998 0.359968 0 1.25916 
140 1 140 0.199973 0.399965 0 0.355951 
141 1 141 0.199953 0.439963 0 -0.322067 
142 1 142 0.199943 0.479962 0 -0.54932 
143 1 143 0.199937 0.519962 0 -0.422568 
144 1 144 0.199937 0.559966 0 -0.312044 
145 1 145 0.199931 0.599968 0 -0.319649 
146 1 146 0.199922 0.639973 0 -0.666712 
147 1 147 0.199908 0.679979 0 -1.01618 
148 1 148 0.199893 0.719987 0 -1.11282 
149 1 149 0.199883 0.759994 0 -0.96473 
150 1 150 0.199883 0.800004 0 -0.572216 
151 1 151 0.19989 0.840014 0 -0.226217 
152 1 152 0.199904 0.880024 0 -0.140257 
153 1 153 0.199918 0.920036 0 0.171659 
154 1 154 0.199917 0.960046 0 0.341634 
155 1 155 0.199914 1.00006 0 0.133086 
156 1 156 0.24 0 0 0 
157 1 157 0.240011 0.0399939 0 0.110466 
158 1 158 0.240029 0.0799895 0 0.0356945 
159 1 159 0.240044 0.119985 0 0.119414 
160 1 160 0.240056 0.159983 0 0.462319 
161 1 161 0.240062 0.199983 0 1.07625 
162 1 162 0.240058 0.239984 0 1.71746 
163 1 163 0.240045 0.279983 0 2.07534 
164 1 164 0.240026 0.319983 0 1.94566 
165 1 165 0.239998 0.359978 0 1.26157 
166 1 166 0.239972 0.399975 0 0.371608 
167 1 167 0.239948 0.439969 0 -0.298354 
168 1 168 0.239935 0.479967 0 -0.556731 
169 1 169 0.239927 0.519965 0 -0.476027 
170 1 170 0.239924 0.559969 0 -0.421344 
171 1 171 0.239917 0.599973 0 -0.397916 
172 1 172 0.239902 0.639979 0 -0.756302 
173 1 173 0.239886 0.679985 0 -1.10586 
174 1 174 0.239867 0.719993 0 -1.27277 
175 1 175 0.239855 0.76 0 -1.25277 
176 1 176 0.239854 0.800007 0 -0.88423 
177 1 177 0.239861 0.840018 0 -0.454898 
178 1 178 0.239874 0.880027 0 -0.124146 
179 1 179 0.239886 0.92004 0 0.164406 
180 1 180 0.23989 0.960054 0 0.213709 
181 1 181 0.239888 1.00007 0 0.0477682 
182 1 182 0.28 0 0 0 
183 1 183 0.280013 0.0399938 0 -0.0643922 
184 1 184 0.28003 0.0799887 0 -0.0728218 
185 1 185 0.280045 0.119984 0 0.208885 
186 1 186 0.280056 0.159985 0 0.553114 
187 1 187 0.280061 0.199986 0 1.03894 
188 1 188 0.280057 0.23999 0 1.60732 
189 1 189 0.280045 0.279992 0 1.91383 
190 1 190 0.280025 0.319993 0 1.73796 
191 1 191 0.279997 0.359989 0 1.11738 
192 1 192 0.279971 0.399984 0 0.365571 
193 1 193 0.279945 0.439977 0 -0.279248 
194 1 194 0.279931 0.479971 0 -0.572486 
195 1 195 0.279919 0.51997 0 -0.543471 
196 1 196 0.279914 0.559972 0 -0.596439 
197 1 197 0.279905 0.599978 0 -0.543617 
198 1 198 0.27989 0.639986 0 -0.808469 
199 1 199 0.279873 0.679993 0 -1.13179 
200 1 200 0.279851 0.72 0 -1.33341 
201 1 201 0.279837 0.760006 0 -1.38152 
202 1 202 0.27983 0.800014 0 -1.16415 
203 1 203 0.279834 0.840021 0 -0.761271 
204 1 204 0.279843 0.880033 0 -0.2065 
205 1 205 0.279853 0.920046 0 0.0569872 
206 1 206 0.279859 0.96006 0 0.0970031 
207 1 207 0.27986 1.00007 0 0.0614962 
208 1 208 0.32 0 0 0 
209 1 209 0.320013 0.0399931 0 -0.200926 
210 1 210 0.320029 0.0799875 0 -0.0632426 
211 1 211 0.320043 0.119984 0 0.336186 
212 1 212 0.320051 0.159986 0 0.670199 
213 1 213 0.320054 0.199989 0 1.02675 
214 1 214 0.320049 0.239995 0 1.39539 
215 1 215 0.320038 0.28 0 1.56728 
216 1 216 0.320019 0.320001 0 1.37165 
217 1 217 0.319992 0.36 0 0.883211 
218 1 218 0.319967 0.399994 0 0.303571 
219 1 219 0.31994 0.439987 0 -0.259409 
220 1 220 0.319923 0.479981 0 -0.600109 
221 1 221 0.319908 0.519978 0 -0.640078 
222 1 222 0.319898 0.559981 0 -0.752082 
223 1 223 0.319887 0.599985 0 -0.745327 
224 1 224 0.319867 0.639994 0 -0.925218 
225 1 225 0.319846 0.679999 0 -1.15093 
226 1 226 0.319823 0.720007 0 -1.42287 
227 1 227 0.319808 0.760011 0 -1.5549 
228 1 228 0.319799 0.800017 0 -1.40961 
229 1 229 0.319802 0.840024 0 -1.04367 
230 1 230 0.319808 0.880035 0 -0.405764 
231 1 231 0.319817 0.920048 0 -0.102219 
232 1 232 0.319825 0.960063 0 0.0739105 
233 1 233 0.319823 1.00008 0 0.178758 
234 1 234 0.36 0 0 0 
235 1 235 0.360014 0.0399924 0 -0.288134 
236 1 236 0.360028 0.0799864 0 -0.000522759 
237 1 237 0.360038 0.119984 0 0.477201 
238 1 238 0.360043 0.159987 0 0.842764 
239 1 239 0.360043 0.199992 0 1.04741 
240 1 240 0.360038 0.239999 0 1.13366 
241 1 241 0.360026 0.280006 0 1.16576 
242 1 242 0.360009 0.320009 0 0.957328 
243 1 243 0.359985 0.360009 0 0.618935 
244 1 244 0.359963 0.400004 0 0.197461 
245 1 245 0.359937 0.439997 0 -0.235627 
246 1 246 0.359917 0.479992 0 -0.563752 
247 1 247 0.359899 0.519988 0 -0.779363 
248 1 248 0.359885 0.559989 0 -0.953045 
249 1 249 0.359869 0.599995 0 -0.969098 
250 1 250 0.35985 0.640001 0 -1.14616 
251 1 251 0.35983 0.680009 0 -1.22932 
252 1 252 0.359806 0.720015 0 -1.48074 
253 1 253 0.35979 0.760019 0 -1.68856 
254 1 254 0.359776 0.800024 0 -1.57568 
255 1 255 0.359774 0.840029 0 -1.22751 
256 1 256 0.359775 0.88004 0 -0.596331 
257 1 257 0.35978 0.92005 0 -0.232521 
258 1 258 0.359786 0.960067 0 0.060973 
259 1 259 0.359781 1.00009 0 0.211693 
260 1 260 0.4 0 0 0 
261 1 261 0.400013 0.0399917 0 -0.246749 
262 1 262 0.400025 0.0799857 0 0.167963 
263 1 263 0.400031 0.119984 0 0.676877 
264 1 264 0.400032 0.159989 0 1.04565 
265 1 265 0.400028 0.199995 0 1.09404 
266 1 266 0.400022 0.240004 0 0.908321 
267 1 267 0.400011 0.280011 0 0.766397 
268 1 268 0.399996 0.320016 0 0.460273 
269 1 269 0.399975 0.360016 0 0.220859 
270 1 270 0.399952 0.400013 0 -0.0236046 
271 1 271 0.399928 0.440009 0 -0.326704 
272 1 272 0.399907 0.480004 0 -0.566132 
273 1 273 0.399884 0.520003 0 -0.856526 
274 1 274 0.399866 0.560003 0 -1.13379 
275 1 275 0.399845 0.600007 0 -1.13154 
276 1 276 0.39982 0.640013 0 -1.27445 
277 1 277 0.399798 0.680017 0 -1.3369 
278 1 278 0.399772 0.720023 0 -1.54842 
279 1 279 0.399757 0.760025 0 -1.77224 
280 1 280 0.399742 0.800032 0 -1.72001 
281 1 281 0.399738 0.840035 0 -1.438 
282 1 282 0.399737 0.880045 0 -0.825341 
283 1 283 0.39974 0.920058 0 -0.295866 
284 1 284 0.399741 0.960075 0 0.103469 
285 1 285 0.399733 1.0001 0 0.213046 
286 1 286 0.44 0 0 0 
287 1 287 0.440012 0.0399908 0 -0.0609189 
288 1 288 0.440019 0.079986 0 0.429607 
289 1 289 0.440021 0.119986 0 0.904253 
290 1 290 0.44002 0.159991 0 1.18968 
291 1 291 0.440013 0.199998 0 1.0715 
292 1 292 0.440006 0.240007 0 0.619837 
293 1 293 0.439993 0.280014 0 0.244882 
294 1 294 0.43998 0.32002 0 -0.144467 
295 1 295 0.439963 0.360022 0 -0.256906 
296 1 296 0.439943 0.40002 0 -0.257633 
297 1 297 0.43992 0.440018 0 -0.342129 
298 1 298 0.439897 0.480014 0 -0.501342 
299 1 299 0.439872 0.520013 0 -0.756909 
300 1 300 0.439847 0.560015 0 -1.06168 
301 1 301 0.439824 0.600019 0 -1.1987 
302 1 302 0.439801 0.640025 0 -1.34065 
303 1 303 0.439778 0.680031 0 -1.40528 
304 1 304 0.439754 0.720035 0 -1.63994 
305 1 305 0.439736 0.760038 0 -1.8292 
306 1 306 0.439717 0.800042 0 -1.80603 
307 1 307 0.439709 0.840047 0 -1.55304 
308 1 308 0.439702 0.880058 0 -0.911694 
309 1 309 0.4397 0.920071 0 -0.24939 
310 1 310 0.439694 0.960091 0 0.12432 
311 1 311 0.439683 1.00011 0 0.109172 
312 1 312 0.48 0 0 0 
313 1 313 0.480006 0.0399907 0 0.201046 
314 1 314 0.48001 0.0799872 0 0.670871 
315 1 315 0.48001 0.119989 0 1.02491 
316 1 316 0.480006 0.159994 0 1.16488 
317 1 317 0.479996 0.200002 0 0.91708 
318 1 318 0.479989 0.24001 0 0.27584 
319 1 319 0.479976 0.280017 0 -0.332756 
320 1 320 0.479963 0.320023 0 -0.763563 
321 1 321 0.479947 0.360026 0 -0.790009 
322 1 322 0.479928 0.400027 0 -0.662235 
323 1 323 0.479906 0.440027 0 -0.478036 
324 1 324 0.47988 0.480026 0 -0.473517 
325 1 325 0.479853 0.520027 0 -0.672171 
326 1 326 0.479824 0.560028 0 -0.914846 
327 1 327 0.479795 0.600033 0 -1.17312 
328 1 328 0.479767 0.640038 0 -1.37676 
329 1 329 0.479741 0.680042 0 -1.43393 
330 1 330 0.479716 0.720047 0 -1.65452 
331 1 331 0.479699 0.76005 0 -1.76464 
332 1 332 0.47968 0.800057 0 -1.72011 
333 1 333 0.47967 0.840063 0 -1.4869 
334 1 334 0.479661 0.880076 0 -0.877714 
335 1 335 0.479655 0.920091 0 -0.203882 
336 1 336 0.479644 0.960112 0 0.0734605 
337 1 337 0.479631 1.00014 0 -0.0640885 
338 1 338 0.52 0 0 0 
339 1 339 0.520001 0.0399909 0 0.504177 
340 1 340 0.519999 0.0799885 0 0.859447 
341 1 341 0.519995 0.119991 0 1.01897 
342 1 342 0.51999 0.159996 0 0.984534 
343 1 343 0.51998 0.200003 0 0.592682 
344 1 344 0.519971 0.240011 0 -0.168775 
345 1 345 0.519957 0.280017 0 -0.950123 
346 1 346 0.519946 0.320023 0 -1.42832 
347 1 347 0.519931 0.360027 0 -1.41273 
348 1 348 0.519913 0.40003 0 -1.19343 
349 1 349 0.519893 0.440032 0 -0.72742 
350 1 350 0.519867 0.480032 0 -0.464927 
351 1 351 0.519838 0.520035 0 -0.51766 
352 1 352 0.519804 0.560037 0 -0.722694 
353 1 353 0.519772 0.600042 0 -1.06063 
354 1 354 0.519745 0.640049 0 -1.28524 
355 1 355 0.519721 0.680055 0 -1.42178 
356 1 356 0.519697 0.720062 0 -1.63351 
357 1 357 0.519676 0.760067 0 -1.63919 
358 1 358 0.519655 0.800076 0 -1.56934 
359 1 359 0.51964 0.840085 0 -1.31537 
360 1 360 0.519624 0.880099 0 -0.77982 
361 1 361 0.519612 0.920115 0 -0.176803 
362 1 362 0.519596 0.960138 0 0.0670454 
363 1 363 0.519581 1.00016 0 -0.106398 
364 1 364 0.56 0 0 0 
365 1 365 0.559992 0.0399921 0 0.716487 
366 1 366 0.559986 0.0799906 0 0.893285 
367 1 367 0.55998 0.119994 0 0.828636 
368 1 368 0.559974 0.159997 0 0.593973 
369 1 369 0.559962 0.200004 0 0.0751608 
370 1 370 0.559953 0.240009 0 -0.741317 
371 1 371 0.559939 0.280016 0 -1.61288 
372 1 372 0.559927 0.320022 0 -2.09883 
373 1 373 0.559912 0.360027 0 -2.03877 
374 1 374 0.559894 0.400032 0 -1.71491 
375 1 375 0.559873 0.440036 0 -1.10607 
376 1 376 0.559844 0.48004 0 -0.759084 
377 1 377 0.559814 0.520044 0 -0.617139 
378 1 378 0.559777 0.560048 0 -0.660488 
379 1 379 0.559741 0.600053 0 -1.04575 
380 1 380 0.559708 0.640058 0 -1.29723 
381 1 381 0.559679 0.680065 0 -1.46167 
382 1 382 0.559655 0.720073 0 -1.57503 
383 1 383 0.559636 0.760083 0 -1.40041 
384 1 384 0.559615 0.800094 0 -1.26387 
385 1 385 0.559601 0.840107 0 -0.996023 
386 1 386 0.559583 0.880124 0 -0.587817 
387 1 387 0.559568 0.920142 0 -0.14045 
388 1 388 0.559548 0.960164 0 0.04238 
389 1 389 0.559531 1.00019 0 -0.148659 
390 1 390 0.6 0 0 0 
391 1 391 0.599986 0.0399938 0 0.806762 
392 1 392 0.599975 0.0799928 0 0.791556 
393 1 393 0.599963 0.119995 0 0.486 
394 1 394 0.599956 0.159997 0 0.0356987 
395 1 395 0.599943 0.200002 0 -0.51411 
396 1 396 0.599933 0.240005 0 -1.25678 
397 1 397 0.599919 0.280011 0 -2.1141 
398 1 398 0.599905 0.320017 0 -2.61541 
399 1 399 0.59989 0.360024 0 -2.67089 
400 1 400 0.599873 0.40003 0 -2.34578 
401 1 401 0.599852 0.440037 0 -1.63086 
402 1 402 0.599825 0.480043 0 -1.21592 
403 1 403 0.599794 0.520048 0 -0.934038 
404 1 404 0.599754 0.560053 0 -0.891966 
405 1 405 0.599717 0.600059 0 -1.28628 
406 1 406 0.599686 0.640067 0 -1.49397 
407 1 407 0.599659 0.680077 0 -1.5779 
408 1 408 0.599635 0.720088 0 -1.52297 
409 1 409 0.599612 0.760101 0 -1.19287 
410 1 410 0.59959 0.800115 0 -0.966822 
411 1 411 0.59957 0.840132 0 -0.685089 
412 1 412 0.599548 0.880151 0 -0.426518 
413 1 413 0.599529 0.92017 0 -0.112953 
414 1 414 0.599505 0.960192 0 0.0382545 
415 1 415 0.599484 1.00021 0 -0.152954 
416 1 416 0.64 0 0 0 
417 1 417 0.639978 0.0399962 0 0.735056 
418 1 418 0.639963 0.0799943 0 0.55746 
419 1 419 0.639949 0.119994 0 0.0736469 
420 1 420 0.639938 0.159996 0 -0.52772 
421 1 421 0.639924 0.199998 0 -1.10216 
422 1 422 0.639911 0.240001 0 -1.77072 
423 1 423 0.639896 0.280005 0 -2.52734 
424 1 424 0.639881 0.320011 0 -2.96178 
425 1 425 0.639864 0.36002 0 -3.10317 
426 1 426 0.639845 0.400029 0 -2.9169 
427 1 427 0.639822 0.440039 0 -2.32472 
428 1 428 0.639793 0.480049 0 -1.88055 
429 1 429 0.639761 0.520057 0 -1.45564 
430 1 430 0.639722 0.560064 0 -1.32058 
431 1 431 0.639684 0.60007 0 -1.57792 
432 1 432 0.639645 0.640078 0 -1.7055 
433 1 433 0.639613 0.680087 0 -1.7757 
434 1 434 0.639588 0.7201 0 -1.56929 
435 1 435 0.639566 0.760116 0 -1.07378 
436 1 436 0.639547 0.800134 0 -0.7137 
437 1 437 0.639529 0.840153 0 -0.416752 
438 1 438 0.639508 0.880175 0 -0.307944 
439 1 439 0.639489 0.920195 0 -0.106131 
440 1 440 0.639462 0.960218 0 0.0005178 
441 1 441 0.639439 1.00024 0 -0.199322 
442 1 442 0.68 0 0 0 
443 1 443 0.679975 0.0399978 0 0.512204 
444 1 444 0.679955 0.0799951 0 0.170099 
445 1 445 0.679933 0.119995 0 -0.423329 
446 1 446 0.67992 0.159994 0 -1.06578 
447 1 447 0.679903 0.199994 0 -1.59863 
448 1 448 0.679888 0.239994 0 -2.12516 
449 1 449 0.67987 0.279999 0 -2.72623 
450 1 450 0.679852 0.320004 0 -3.14424 
451 1 451 0.679833 0.360014 0 -3.36095 
452 1 452 0.679813 0.400026 0 -3.28281 
453 1 453 0.679792 0.440039 0 -2.88431 
454 1 454 0.679766 0.480052 0 -2.48542 
455 1 455 0.679735 0.520063 0 -2.0536 
456 1 456 0.679694 0.560073 0 -1.93078 
457 1 457 0.679656 0.600081 0 -2.05279 
458 1 458 0.67962 0.640091 0 -2.11882 
459 1 459 0.679591 0.680103 0 -2.08423 
460 1 460 0.679565 0.720118 0 -1.62408 
461 1 461 0.679541 0.760136 0 -0.995978 
462 1 462 0.679519 0.800155 0 -0.547582 
463 1 463 0.679498 0.840176 0 -0.243194 
464 1 464 0.679474 0.880199 0 -0.224923 
465 1 465 0.679453 0.92022 0 -0.126023 
466 1 466 0.679423 0.960242 0 -0.12956 
467 1 467 0.679398 1.00026 0 -0.359984 
468 1 468 0.72 0 0 0 
469 1 469 0.719971 0.0399986 0 0.171832 
470 1 470 0.719947 0.0799962 0 -0.266224 
471 1 471 0.719923 0.119994 0 -0.879112 
472 1 472 0.719903 0.159992 0 -1.53435 
473 1 473 0.719882 0.199991 0 -2.04223 
474 1 474 0.719863 0.239991 0 -2.38361 
475 1 475 0.719842 0.279995 0 -2.73514 
476 1 476 0.719822 0.32 0 -3.1008 
477 1 477 0.7198 0.360012 0 -3.41348 
478 1 478 0.719776 0.400027 0 -3.47797 
479 1 479 0.719751 0.440043 0 -3.29872 
480 1 480 0.719723 0.480061 0 -2.97889 
481 1 481 0.719692 0.520075 0 -2.56321 
482 1 482 0.719656 0.560088 0 -2.40038 
483 1 483 0.71962 0.600097 0 -2.32216 
484 1 484 0.719577 0.640107 0 -2.31934 
485 1 485 0.719542 0.680118 0 -2.24194 
486 1 486 0.719513 0.720133 0 -1.70731 
487 1 487 0.71949 0.760153 0 -1.10204 
488 1 488 0.719472 0.800174 0 -0.605268 
489 1 489 0.719453 0.840197 0 -0.279383 
490 1 490 0.719432 0.880221 0 -0.273968 
491 1 491 0.719412 0.920244 0 -0.237764 
492 1 492 0.719383 0.960265 0 -0.345318 
493 1 493 0.719358 1.00028 0 -0.583724 
494 1 494 0.76 0 0 0 
495 1 495 0.759971 0.0399987 0 -0.206744 
496 1 496 0.759941 0.0799965 0 -0.679345 
497 1 497 0.75991 0.119994 0 -1.27938 
498 1 498 0.759885 0.159991 0 -1.92666 
499 1 499 0.759861 0.19999 0 -2.42555 
500 1 500 0.759839 0.23999 0 -2.65275 
501 1 501 0.759815 0.279994 0 -2.78898 
502 1 502 0.759789 0.32 0 -3.04313 
503 1 503 0.759764 0.360013 0 -3.35981 
504 1 504 0.759739 0.400029 0 -3.52242 
505 1 505 0.759714 0.440048 0 -3.51884 
506 1 506 0.759689 0.480068 0 -3.25274 
507 1 507 0.759659 0.520085 0 -2.87036 
508 1 508 0.759623 0.5601 0 -2.72346 
509 1 509 0.759587 0.600112 0 -2.56502 
510 1 510 0.75955 0.640125 0 -2.54915 
511 1 511 0.759519 0.680139 0 -2.39983 
512 1 512 0.759489 0.720155 0 -1.78952 
513 1 513 0.759462 0.760175 0 -1.20949 
514 1 514 0.75944 0.800196 0 -0.680669 
515 1 515 0.759417 0.840219 0 -0.365328 
516 1 516 0.759395 0.880242 0 -0.385249 
517 1 517 0.759374 0.920265 0 -0.431001 
518 1 518 0.759346 0.960286 0 -0.601599 
519 1 519 0.759323 1.0003 0 -0.792203 
520 1 520 0.8 0 0 0 
521 1 521 0.799968 0.0399989 0 -0.562433 
522 1 522 0.799935 0.0799965 0 -1.09843 
523 1 523 0.799902 0.119995 0 -1.70304 
524 1 524 0.799869 0.159993 0 -2.32798 
525 1 525 0.79984 0.199993 0 -2.78178 
526 1 526 0.799813 0.239994 0 -2.90995 
527 1 527 0.799786 0.279998 0 -2.94432 
528 1 528 0.799758 0.320006 0 -3.12768 
529 1 529 0.799728 0.360021 0 -3.36239 
530 1 530 0.799699 0.400038 0 -3.49939 
531 1 531 0.79967 0.44006 0 -3.57164 
532 1 532 0.799642 0.480082 0 -3.39219 
533 1 533 0.799612 0.520102 0 -3.10481 
534 1 534 0.799582 0.56012 0 -2.94371 
535 1 535 0.799548 0.600133 0 -2.66072 
536 1 536 0.799505 0.640145 0 -2.60428 
537 1 537 0.799468 0.680158 0 -2.47372 
538 1 538 0.799433 0.720174 0 -1.95449 
539 1 539 0.799408 0.760194 0 -1.49486 
540 1 540 0.799387 0.800215 0 -1.00461 
541 1 541 0.799367 0.840238 0 -0.692 
542 1 542 0.799347 0.880261 0 -0.63891 
543 1 543 0.79933 0.920284 0 -0.695279 
544 1 544 0.799309 0.960303 0 -0.878291 
545 1 545 0.799289 1.00032 0 -0.991656 
546 1 546 0.84 0 0 0 
547 1 547 0.839968 0.0399977 0 -0.783884 
548 1 548 0.83993 0.0799963 0 -1.37179 
549 1 549 0.83989 0.119996 0 -1.99557 
550 1 550 0.839853 0.159995 0 -2.67806 
551 1 551 0.83982 0.199996 0 -3.24368 
552 1 552 0.839789 0.239999 0 -3.36432 
553 1 553 0.839759 0.280007 0 -3.28663 
554 1 554 0.839727 0.320017 0 -3.33338 
555 1 555 0.839694 0.360032 0 -3.49393 
556 1 556 0.839662 0.400051 0 -3.66192 
557 1 557 0.839633 0.440073 0 -3.7764 
558 1 558 0.839607 0.480096 0 -3.63398 
559 1 559 0.83958 0.520117 0 -3.38132 
560 1 560 0.839549 0.560135 0 -3.18342 
561 1 561 0.839515 0.600152 0 -2.85076 
562 1 562 0.839478 0.640166 0 -2.73083 
563 1 563 0.839445 0.680182 0 -2.54503 
564 1 564 0.839409 0.720197 0 -2.09047 
565 1 565 0.839379 0.760215 0 -1.7521 
566 1 566 0.839353 0.800235 0 -1.36758 
567 1 567 0.839329 0.840257 0 -1.0803 
568 1 568 0.839308 0.880278 0 -0.939274 
569 1 569 0.83929 0.9203 0 -0.985765 
570 1 570 0.839273 0.960318 0 -1.11649 
571 1 571 0.839256 1.00033 0 -1.11745 
572 1 572 0.88 0 0 0 
573 1 573 0.879963 0.0399979 0 -0.914097 
574 1 574 0.879921 0.0799976 0 -1.59287 
575 1 575 0.87988 0.119998 0 -2.30061 
576 1 576 0.879837 0.159999 0 -3.02012 
577 1 577 0.879799 0.200003 0 -3.65396 
578 1 578 0.879764 0.240009 0 -3.87253 
579 1 579 0.87973 0.280019 0 -3.86989 
580 1 580 0.879694 0.320032 0 -3.8705 
581 1 581 0.879658 0.36005 0 -3.92919 
582 1 582 0.879624 0.40007 0 -3.9888 
583 1 583 0.879591 0.440093 0 -4.02783 
584 1 584 0.879561 0.480116 0 -3.94679 
585 1 585 0.879533 0.520139 0 -3.75576 
586 1 586 0.879506 0.560158 0 -3.51763 
587 1 587 0.879475 0.600175 0 -3.13654 
588 1 588 0.879433 0.640187 0 -2.8996 
589 1 589 0.879392 0.680201 0 -2.66332 
590 1 590 0.879353 0.720216 0 -2.31258 
591 1 591 0.879324 0.760233 0 -2.0721 
592 1 592 0.879298 0.800251 0 -1.75484 
593 1 593 0.879276 0.840272 0 -1.4642 
594 1 594 0.879258 0.880292 0 -1.27209 
595 1 595 0.879244 0.920313 0 -1.32949 
596 1 596 0.879234 0.960331 0 -1.41938 
597 1 597 0.879221 1.00035 0 -1.34196 
598 1 598 0.92 0 0 0 
599 1 599 0.919961 0.0399979 0 -0.928819 
600 1 600 0.919913 0.0799982 0 -1.70682 
601 1 601 0.919866 0.12 0 -2.53825 
602 1 602 0.919818 0.160004 0 -3.35629 
603 1 603 0.919776 0.20001 0 -4.0937 
604 1 604 0.919736 0.240019 0 -4.43357 
605 1 605 0.919699 0.280032 0 -4.50869 
606 1 606 0.919662 0.320048 0 -4.44014 
607 1 607 0.919622 0.360067 0 -4.42769 
608 1 608 0.919587 0.400088 0 -4.44528 
609 1 609 0.919555 0.440111 0 -4.47758 
610 1 610 0.919527 0.480132 0 -4.45665 
611 1 611 0.919503 0.520154 0 -4.25121 
612 1 612 0.919474 0.560172 0 -3.94876 
613 1 613 0.919443 0.600192 0 -3.47965 
614 1 614 0.919407 0.640208 0 -3.00305 
615 1 615 0.919372 0.680224 0 -2.64493 
616 1 616 0.919333 0.720238 0 -2.3525 
617 1 617 0.919299 0.760253 0 -2.20174 
618 1 618 0.919267 0.800269 0 -2.0428 
619 1 619 0.91924 0.840288 0 -1.82542 
620 1 620 0.91922 0.880307 0 -1.55866 
621 1 621 0.919205 0.920327 0 -1.52413 
622 1 622 0.919197 0.960345 0 -1.6048 
623 1 623 0.919186 1.00036 0 -1.54174 
624 1 624 0.96 0 0 0 
625 1 625 0.959953 0.0399982 0 -0.773645 
626 1 626 0.959902 0.0799999 0 -1.65853 
627 1 627 0.959851 0.120004 0 -2.67878 
628 1 628 0.959797 0.16001 0 -3.60831 
629 1 629 0.959751 0.200019 0 -4.42731 
630 1 630 0.959705 0.240031 0 -4.91704 
631 1 631 0.959664 0.280046 0 -5.13336 
632 1 632 0.959623 0.320064 0 -5.04911 
633 1 633 0.959583 0.360085 0 -4.97773 
634 1 634 0.959547 0.400106 0 -4.93906 
635 1 635 0.959512 0.440129 0 -4.96611 
636 1 636 0.959481 0.480149 0 -4.99036 
637 1 637 0.959455 0.520172 0 -4.7637 
638 1 638 0.959429 0.560191 0 -4.38568 
639 1 639 0.959401 0.60021 0 -3.78044 
640 1 640 0.959362 0.640225 0 -3.03678 
641 1 641 0.959319 0.68024 0 -2.53765 
642 1 642 0.959279 0.720254 0 -2.23661 
643 1 643 0.959246 0.760269 0 -2.1255 
644 1 644 0.959215 0.800285 0 -2.11552 
645 1 645 0.959191 0.840303 0 -1.98716 
646 1 646 0.959172 0.880321 0 -1.7286 
647 1 647 0.959158 0.92034 0 -1.70533 
648 1 648 0.959153 0.96036 0 -1.89164 
649 1 649 0.959144 1.00038 0 -1.91524 
650 1 650 1 0 0 0 
651 1 651 0.999948 0.0399979 0 -0.763195 
652 1 652 0.999889 0.0800008 0 -1.73582 
653 1 653 0.999832 0.120007 0 -2.83368 
654 1 654 0.999774 0.160015 0 -3.78316 
655 1 655 0.999724 0.200025 0 -4.61707 
656 1 656 0.999673 0.240039 0 -5.24031 
657 1 657 0.99963 0.280055 0 -5.61232 
658 1 658 0.999586 0.320075 0 -5.55572 
659 1 659 0.999545 0.360095 0 -5.45476 
660 1 660 0.999507 0.400115 0 -5.35716 
661 1 661 0.999474 0.440136 0 -5.36789 
662 1 662 0.999448 0.480155 0 -5.40894 
663 1 663 0.999424 0.520176 0 -5.17588 
664 1 664 0.999394 0.560195 0 -4.73243 
665 1 665 0.999366 0.600218 0 -3.99477 
666 1 666 0.999334 0.640238 0 -3.03371 
667 1 667 0.9993 0.680258 0 -2.37691 
668 1 668 0.999263 0.720274 0 -1.99687 
669 1 669 0.999225 0.760289 0 -1.8932 
670 1 670 0.999188 0.800304 0 -2.01406 
671 1 671 0.999159 0.84032 0 -1.97798 
672 1 672 0.999136 0.880337 0 -1.75347 
673 1 673 0.99912 0.920355 0 -1.72371 
674 1 674 0.999113 0.960375 0 -1.95609 
675 1 675 0.999103 1.0004 0 -2.03538 
676 1 676 1.04 0 0 0 
677 1 677 1.03994 0.039998 0 -0.726177 
678 1 678 1.03988 0.0800009 0 -1.74952 
679 1 679 1.03981 0.120007 0 -2.92613 
680 1 680 1.03975 0.160017 0 -3.933 
681 1 681 1.0397 0.200029 0 -4.76354 
682 1 682 1.03964 0.240044 0 -5.43679 
683 1 683 1.03959 0.280062 0 -5.87433 
684 1 684 1.03955 0.320081 0 -5.83249 
685 1 685 1.03951 0.360102 0 -5.74274 
686 1 686 1.03947 0.400121 0 -5.6559 
687 1 687 1.03943 0.440141 0 -5.70649 
688 1 688 1.0394 0.48016 0 -5.77586 
689 1 689 1.03937 0.520182 0 -5.59341 
690 1 690 1.03934 0.560203 0 -5.09046 
691 1 691 1.03932 0.600226 0 -4.15933 
692 1 692 1.03928 0.640247 0 -2.97206 
693 1 693 1.03924 0.680267 0 -2.14124 
694 1 694 1.03921 0.720285 0 -1.67085 
695 1 695 1.03917 0.760303 0 -1.56674 
696 1 696 1.03914 0.800319 0 -1.77961 
697 1 697 1.03911 0.840336 0 -1.84523 
698 1 698 1.03909 0.880353 0 -1.70479 
699 1 699 1.03907 0.920371 0 -1.72225 
700 1 700 1.03906 0.960391 0 -2.05639 
701 1 701 1.03905 1.00041 0 -2.21706 
702 1 702 1.08 0 0 0 
703 1 703 1.07993 0.0399968 0 -0.782973 
704 1 704 1.07986 0.0799996 0 -1.86115 
705 1 705 1.07979 0.120007 0 -3.04471 
706 1 706 1.07973 0.160017 0 -4.02398 
707 1 707 1.07967 0.200029 0 -4.80922 
708 1 708 1.07961 0.240045 0 -5.52808 
709 1 709 1.07956 0.280062 0 -6.04395 
710 1 710 1.07951 0.32008 0 -6.05295 
711 1 711 1.07947 0.360099 0 -5.96533 
712 1 712 1.07943 0.400118 0 -5.89236 
713 1 713 1.07939 0.440137 0 -5.99906 
714 1 714 1.07936 0.480154 0 -6.03416 
715 1 715 1.07934 0.520176 0 -5.83402 
716 1 716 1.07931 0.560198 0 -5.29846 
717 1 717 1.07928 0.600226 0 -4.38205 
718 1 718 1.07925 0.640253 0 -3.18933 
719 1 719 1.07922 0.680278 0 -2.20736 
720 1 720 1.07919 0.720299 0 -1.62162 
721 1 721 1.07915 0.760319 0 -1.4606 
722 1 722 1.07911 0.800336 0 -1.61874 
723 1 723 1.07908 0.840352 0 -1.69222 
724 1 724 1.07905 0.88037 0 -1.61403 
725 1 725 1.07904 0.920386 0 -1.65312 
726 1 726 1.07902 0.960407 0 -2.04484 
727 1 727 1.07901 1.00043 0 -2.26205 
728 1 728 1.12 0 0 0 
729 1 729 1.11992 0.039996 0 -0.99809 
730 1 730 1.11985 0.0799978 0 -2.12098 
731 1 731 1.11978 0.120005 0 -3.21237 
732 1 732 1.11971 0.160014 0 -4.10421 
733 1 733 1.11965 0.200027 0 -4.8353 
734 1 734 1.11958 0.240043 0 -5.55515 
735 1 735 1.11953 0.28006 0 -6.11859 
736 1 736 1.11948 0.320078 0 -6.25131 
737 1 737 1.11943 0.360097 0 -6.20073 
738 1 738 1.11939 0.400114 0 -6.0833 
739 1 739 1.11935 0.440133 0 -6.17083 
740 1 740 1.11931 0.480151 0 -6.19111 
741 1 741 1.11927 0.520174 0 -6.07574 
742 1 742 1.11925 0.560199 0 -5.53624 
743 1 743 1.11922 0.600227 0 -4.6271 
744 1 744 1.11919 0.640252 0 -3.45295 
745 1 745 1.11915 0.680279 0 -2.37942 
746 1 746 1.11912 0.720302 0 -1.77177 
747 1 747 1.11909 0.760325 0 -1.53943 
748 1 748 1.11906 0.800345 0 -1.56682 
749 1 749 1.11903 0.840364 0 -1.66768 
750 1 750 1.11901 0.880383 0 -1.67597 
751 1 751 1.11899 0.920401 0 -1.67105 
752 1 752 1.11897 0.960422 0 -1.97529 
753 1 753 1.11895 1.00045 0 -2.16046 
754 1 754 1.16 0 0 0 
755 1 755 1.15992 0.0399961 0 -1.15038 
756 1 756 1.15984 0.0799972 0 -2.31223 
757 1 757 1.15976 0.120003 0 -3.35584 
758 1 758 1.15969 0.160013 0 -4.20127 
759 1 759 1.15962 0.200025 0 -4.93645 
760 1 760 1.15956 0.240039 0 -5.68491 
761 1 761 1.1595 0.280055 0 -6.22331 
762 1 762 1.15945 0.320071 0 -6.39607 
763 1 763 1.1594 0.360088 0 -6.38761 
764 1 764 1.15935 0.400104 0 -6.28701 
765 1 765 1.15931 0.440121 0 -6.35038 
766 1 766 1.15927 0.48014 0 -6.29382 
767 1 767 1.15923 0.520162 0 -6.1954 
768 1 768 1.1592 0.560188 0 -5.66453 
769 1 769 1.15916 0.600219 0 -4.92987 
770 1 770 1.15914 0.640249 0 -3.94169 
771 1 771 1.15912 0.680281 0 -2.84595 
772 1 772 1.15909 0.720307 0 -2.23614 
773 1 773 1.15906 0.760332 0 -1.88948 
774 1 774 1.15902 0.800354 0 -1.72259 
775 1 775 1.15899 0.840374 0 -1.779 
776 1 776 1.15897 0.880395 0 -1.80131 
777 1 777 1.15895 0.920415 0 -1.7645 
778 1 778 1.15892 0.960437 0 -1.94555 