ITEM: TIMESTEP
0
ITEM: NUMBER OF ATOMS
6875
ITEM: BOX BOUNDS sm sm sm
0 4
0 2
0 0
ITEM: ATOMS id type tag x y z damage s11 s22 s33 s12 s13 s23 vx T ienergy 
1 1 1 0.0200004 0.02 0 0 0.00288558 -0.00121251 0.000536747 0.000299808 0 0 0.182391 0 0 
2 1 2 0.0200017 0.0599987 0 0 0.0146486 -0.00804397 0.00211759 -0.0029144 0 0 0.120345 0 0 
3 1 3 0.0200015 0.0999949 0 0 0.00623951 -0.0285901 -0.00715937 -0.0261095 0 0 -0.251305 0 0 
4 1 4 0.0199996 0.13999 0 0 -0.0239281 -0.0429657 -0.0214337 -0.0485769 0 0 -0.179108 0 0 
5 1 5 0.0199972 0.179985 0 0 -0.0609011 -0.0536715 -0.036717 -0.0697474 0 0 -0.11367 0 0 
6 1 6 0.0199935 0.219982 0 0 -0.112386 -0.0675226 -0.0576665 -0.0856791 0 0 -0.258349 0 0 
7 1 7 0.0199895 0.25998 0 0 -0.172203 -0.0886634 -0.0836353 -0.0923003 0 0 -0.324102 0 0 
8 1 8 0.0199857 0.299979 0 0 -0.226937 -0.105782 -0.106692 -0.0941544 0 0 -0.435842 0 0 
9 1 9 0.0199823 0.33998 0 0 -0.281661 -0.129804 -0.131971 -0.0917712 0 0 -0.540095 0 0 
10 1 10 0.0199791 0.379981 0 0 -0.327646 -0.145515 -0.151784 -0.0868274 0 0 -0.646218 0 0 
11 1 11 0.0199764 0.419982 0 0 -0.37381 -0.170678 -0.174698 -0.0810103 0 0 -0.72387 0 0 
12 1 12 0.0199739 0.459983 0 0 -0.409474 -0.180741 -0.189392 -0.074263 0 0 -0.79971 0 0 
13 1 13 0.0199716 0.499985 0 0 -0.450796 -0.207708 -0.211343 -0.06778 0 0 -0.852652 0 0 
14 1 14 0.0199693 0.539987 0 0 -0.479783 -0.210107 -0.221434 -0.0604396 0 0 -0.896354 0 0 
15 1 15 0.0199671 0.579989 0 0 -0.521517 -0.240749 -0.244711 -0.0524644 0 0 -0.935922 0 0 
16 1 16 0.0199648 0.619991 0 0 -0.547523 -0.233748 -0.250825 -0.043013 0 0 -0.922895 0 0 
17 1 17 0.0199624 0.659994 0 0 -0.593061 -0.268875 -0.27678 -0.029309 0 0 -0.961365 0 0 
18 1 18 0.0199599 0.699998 0 0 -0.617257 -0.250368 -0.278612 -0.0138427 0 0 -0.846015 0 0 
19 1 19 0.0199577 0.740004 0 0 -0.659655 -0.286477 -0.303884 0.0142125 0 0 -0.885316 0 0 
20 1 20 0.0199549 0.780011 0 0 -0.686648 -0.259632 -0.303932 0.034909 0 0 -0.513761 0 0 
21 1 21 0.0199539 0.82002 0 0 -0.702617 -0.291132 -0.319217 0.0943733 0 0 -1.07623 0 0 
22 1 22 0.0199531 0.86003 0 0 -0.714543 -0.245179 -0.30826 0.105437 0 0 0.550374 0 0 
23 1 23 0.0199495 0.900042 0 0 -0.761349 -0.327257 -0.349773 0.191425 0 0 -1.49716 0 0 
24 1 24 0.0199522 0.94005 0 0 -0.723986 -0.234054 -0.307717 0.196163 0 0 0.511188 0 0 
25 1 25 0.0199225 0.980081 0 0 -1.08346 -0.266841 -0.43415 0.244644 0 0 -0.424083 0 0 
26 1 26 0.0600014 0.0199985 0 0 -0.000862244 -0.0210733 -0.00702746 0.000156321 0 0 -0.149714 0 0 
27 1 27 0.0600042 0.0599923 0 0 -0.0160124 -0.0648253 -0.0259045 -0.0132387 0 0 -0.547803 0 0 
28 1 28 0.0600044 0.0999815 0 0 -0.0264435 -0.0905473 -0.0374932 -0.0394119 0 0 -0.586991 0 0 
29 1 29 0.0600001 0.139969 0 0 -0.0393305 -0.0987072 -0.0442405 -0.0588349 0 0 -0.273097 0 0 
30 1 30 0.0599913 0.179957 0 0 -0.0888188 -0.109907 -0.0637017 -0.0797599 0 0 -0.340216 0 0 
31 1 31 0.0599794 0.219948 0 0 -0.144002 -0.10716 -0.0805219 -0.0932319 0 0 -0.554663 0 0 
32 1 32 0.059967 0.259943 0 0 -0.204697 -0.118575 -0.103661 -0.0980713 0 0 -0.800645 0 0 
33 1 33 0.059955 0.299941 0 0 -0.259208 -0.118879 -0.121256 -0.0986598 0 0 -1.15768 0 0 
34 1 34 0.0599443 0.339942 0 0 -0.316785 -0.140527 -0.146694 -0.0942814 0 0 -1.46106 0 0 
35 1 35 0.0599348 0.379945 0 0 -0.357492 -0.141261 -0.160005 -0.0876823 0 0 -1.74741 0 0 
36 1 36 0.0599265 0.419949 0 0 -0.406758 -0.172364 -0.185827 -0.0794396 0 0 -1.95206 0 0 
37 1 37 0.0599191 0.459954 0 0 -0.433974 -0.165508 -0.192371 -0.0706118 0 0 -2.11034 0 0 
38 1 38 0.0599123 0.499959 0 0 -0.480964 -0.205733 -0.220408 -0.0609212 0 0 -2.21728 0 0 
39 1 39 0.0599057 0.539964 0 0 -0.498625 -0.184127 -0.21914 -0.0516878 0 0 -2.2561 0 0 
40 1 40 0.059899 0.579971 0 0 -0.550747 -0.233541 -0.251796 -0.0394627 0 0 -2.33253 0 0 
41 1 41 0.0598918 0.619979 0 0 -0.56361 -0.192214 -0.24264 -0.0297085 0 0 -2.24441 0 0 
42 1 42 0.0598843 0.65999 0 0 -0.624175 -0.247329 -0.27986 -0.0099857 0 0 -2.37391 0 0 
43 1 43 0.059876 0.700001 0 0 -0.636015 -0.185826 -0.263878 0.000914139 0 0 -2.03622 0 0 
44 1 44 0.0598681 0.74002 0 0 -0.702254 -0.238986 -0.302309 0.0394454 0 0 -2.33073 0 0 
45 1 45 0.0598602 0.780039 0 0 -0.699158 -0.165134 -0.277539 0.0453097 0 0 -1.25125 0 0 
46 1 46 0.0598541 0.820066 0 0 -0.774916 -0.212306 -0.317115 0.120903 0 0 -2.14561 0 0 
47 1 47 0.0598511 0.860094 0 0 -0.745536 -0.150219 -0.287666 0.107274 0 0 0.115404 0 0 
48 1 48 0.0598457 0.900127 0 0 -0.773092 -0.169534 -0.302753 0.2124 0 0 -1.19585 0 0 
49 1 49 0.0598385 0.940164 0 0 -0.869433 -0.132356 -0.321805 0.19017 0 0 0.703718 0 0 
50 1 50 0.0597802 0.980219 0 0 -0.806321 0.0197949 -0.252516 0.0751974 0 0 -0.613371 0 0 
51 1 51 0.100001 0.0199937 0 0 -0.0569711 -0.102793 -0.0512089 -0.00786281 0 0 -1.03196 0 0 
52 1 52 0.100004 0.0599798 0 0 -0.0777414 -0.133067 -0.067579 -0.0249054 0 0 -1.69194 0 0 
53 1 53 0.100005 0.0999643 0 0 -0.0787112 -0.139475 -0.0699454 -0.0414429 0 0 -0.847382 0 0 
54 1 54 0.0999983 0.139947 0 0 -0.106463 -0.158509 -0.0849536 -0.0701439 0 0 -0.399517 0 0 
55 1 55 0.0999823 0.179931 0 0 -0.153912 -0.165931 -0.102561 -0.0929498 0 0 -0.299785 0 0 
56 1 56 0.0999617 0.219919 0 0 -0.201582 -0.152724 -0.113622 -0.102218 0 0 -0.317008 0 0 
57 1 57 0.0999399 0.259911 0 0 -0.264476 -0.159668 -0.136044 -0.10734 0 0 -0.731374 0 0 
58 1 58 0.099919 0.299909 0 0 -0.31394 -0.144099 -0.146928 -0.105193 0 0 -1.24206 0 0 
59 1 59 0.0999005 0.33991 0 0 -0.370345 -0.161262 -0.170561 -0.0988765 0 0 -1.74319 0 0 
60 1 60 0.0998845 0.379915 0 0 -0.403807 -0.14614 -0.176453 -0.090718 0 0 -2.20974 0 0 
61 1 61 0.0998708 0.419922 0 0 -0.451454 -0.176257 -0.201445 -0.0804495 0 0 -2.58771 0 0 
62 1 62 0.0998586 0.45993 0 0 -0.469952 -0.154636 -0.200441 -0.070478 0 0 -2.87379 0 0 
63 1 63 0.0998474 0.49994 0 0 -0.515661 -0.195603 -0.228309 -0.0585111 0 0 -3.13366 0 0 
64 1 64 0.0998363 0.53995 0 0 -0.526076 -0.160953 -0.220516 -0.0488 0 0 -3.26432 0 0 
65 1 65 0.0998248 0.579963 0 0 -0.577398 -0.207607 -0.252027 -0.0340288 0 0 -3.50689 0 0 
66 1 66 0.0998124 0.619977 0 0 -0.588185 -0.158606 -0.239734 -0.0253164 0 0 -3.47047 0 0 
67 1 67 0.0997987 0.659996 0 0 -0.647491 -0.199619 -0.27201 -0.0031249 0 0 -3.7595 0 0 
68 1 68 0.0997839 0.700017 0 0 -0.66399 -0.144802 -0.25968 0.00447268 0 0 -3.34829 0 0 
69 1 69 0.0997684 0.740046 0 0 -0.724477 -0.161502 -0.284519 0.0411527 0 0 -3.64896 0 0 
70 1 70 0.0997547 0.780078 0 0 -0.7459 -0.128298 -0.280727 0.0528571 0 0 -2.59114 0 0 
71 1 71 0.0997419 0.820118 0 0 -0.772547 -0.0942954 -0.278359 0.0982319 0 0 -2.30196 0 0 
72 1 72 0.0997345 0.860162 0 0 -0.815424 -0.12095 -0.300741 0.125011 0 0 -1.33626 0 0 
73 1 73 0.0997281 0.90021 0 0 -0.800912 -0.0294746 -0.266625 0.158311 0 0 -0.381149 0 0 
74 1 74 0.0997077 0.94027 0 0 -0.815114 -0.00912912 -0.264649 0.105011 0 0 0.494872 0 0 
75 1 75 0.0996583 0.980324 0 0 -0.717696 -0.0357381 -0.241871 0.0755625 0 0 -1.34668 0 0 
76 1 76 0.139998 0.0199882 0 0 -0.115614 -0.199126 -0.100924 -0.0143976 0 0 -1.536 0 0 
77 1 77 0.139998 0.0599669 0 0 -0.140974 -0.18807 -0.105516 -0.0204536 0 0 -2.57699 0 0 
78 1 78 0.139998 0.0999475 0 0 -0.164283 -0.200219 -0.116897 -0.0387035 0 0 -1.65024 0 0 
79 1 79 0.139988 0.139928 0 0 -0.193542 -0.214718 -0.130944 -0.0736055 0 0 -0.893358 0 0 
80 1 80 0.139966 0.179909 0 0 -0.226788 -0.212222 -0.140818 -0.0974125 0 0 -0.262329 0 0 
81 1 81 0.139937 0.219895 0 0 -0.270243 -0.200668 -0.151063 -0.109322 0 0 -0.12543 0 0 
82 1 82 0.139906 0.259885 0 0 -0.326729 -0.200095 -0.169024 -0.114693 0 0 -0.48574 0 0 
83 1 83 0.139876 0.299881 0 0 -0.368638 -0.173405 -0.173914 -0.110934 0 0 -0.956197 0 0 
84 1 84 0.13985 0.339883 0 0 -0.422753 -0.184204 -0.194774 -0.103903 0 0 -1.52971 0 0 
85 1 85 0.139827 0.379889 0 0 -0.451076 -0.155808 -0.194751 -0.0946447 0 0 -2.03979 0 0 
86 1 86 0.139808 0.419898 0 0 -0.497086 -0.180126 -0.217359 -0.0834072 0 0 -2.47642 0 0 
87 1 87 0.139791 0.459909 0 0 -0.511863 -0.148697 -0.212005 -0.0732679 0 0 -2.79057 0 0 
88 1 88 0.139776 0.499924 0 0 -0.554587 -0.181258 -0.236214 -0.0607302 0 0 -3.10022 0 0 
89 1 89 0.13976 0.53994 0 0 -0.564934 -0.144161 -0.227611 -0.0517495 0 0 -3.25531 0 0 
90 1 90 0.139744 0.57996 0 0 -0.610009 -0.17397 -0.251697 -0.0371456 0 0 -3.56742 0 0 
91 1 91 0.139726 0.619981 0 0 -0.626393 -0.134231 -0.244184 -0.029908 0 0 -3.5866 0 0 
92 1 92 0.139706 0.660009 0 0 -0.673466 -0.145603 -0.262986 -0.0102071 0 0 -3.93429 0 0 
93 1 93 0.139684 0.70004 0 0 -0.701651 -0.115165 -0.262261 -0.00176819 0 0 -3.68599 0 0 
94 1 94 0.139661 0.740078 0 0 -0.737941 -0.0942002 -0.267192 0.0243374 0 0 -3.66976 0 0 
95 1 95 0.13964 0.780121 0 0 -0.778203 -0.0872626 -0.277916 0.0441042 0 0 -3.08562 0 0 
96 1 96 0.139622 0.82017 0 0 -0.78999 -0.0487885 -0.269327 0.0714196 0 0 -2.06714 0 0 
97 1 97 0.13961 0.860224 0 0 -0.806996 -0.0301087 -0.268788 0.0986379 0 0 -0.961679 0 0 
98 1 98 0.139599 0.900282 0 0 -0.82975 -0.0293452 -0.275864 0.106616 0 0 -0.246687 0 0 
99 1 99 0.13958 0.940342 0 0 -0.77212 0.0325447 -0.237412 0.0575502 0 0 0.705774 0 0 
100 1 100 0.139546 0.980402 0 0 -0.703696 -0.00592237 -0.227778 0.0577818 0 0 -1.78554 0 0 
101 1 101 0.179993 0.0199838 0 0 -0.171398 -0.280782 -0.145048 -0.0340574 0 0 -1.8036 0 0 
102 1 102 0.179986 0.0599556 0 0 -0.220026 -0.253896 -0.152031 -0.0299828 0 0 -3.26658 0 0 
103 1 103 0.179982 0.0999327 0 0 -0.251373 -0.254138 -0.162179 -0.0407823 0 0 -2.27036 0 0 
104 1 104 0.179969 0.139912 0 0 -0.270247 -0.251473 -0.167385 -0.072835 0 0 -1.08521 0 0 
105 1 105 0.179941 0.179893 0 0 -0.300337 -0.253678 -0.177761 -0.0978199 0 0 -0.0713478 0 0 
106 1 106 0.179905 0.219877 0 0 -0.333304 -0.240755 -0.184202 -0.111305 0 0 0.43545 0 0 
107 1 107 0.179866 0.259866 0 0 -0.376214 -0.234009 -0.195824 -0.116367 0 0 0.364419 0 0 
108 1 108 0.179828 0.299861 0 0 -0.409485 -0.200728 -0.195821 -0.11227 0 0 0.00616036 0 0 
109 1 109 0.179794 0.339862 0 0 -0.456085 -0.201895 -0.211176 -0.104446 0 0 -0.561272 0 0 
110 1 110 0.179765 0.379867 0 0 -0.477138 -0.161707 -0.205024 -0.0945113 0 0 -1.1102 0 0 
111 1 111 0.17974 0.419879 0 0 -0.517438 -0.174913 -0.222227 -0.083088 0 0 -1.64326 0 0 
112 1 112 0.179718 0.459893 0 0 -0.528412 -0.135109 -0.212957 -0.0735729 0 0 -2.06356 0 0 
113 1 113 0.179698 0.499912 0 0 -0.565131 -0.153448 -0.230661 -0.0620319 0 0 -2.51228 0 0 
114 1 114 0.179678 0.539933 0 0 -0.576749 -0.116319 -0.222457 -0.0549937 0 0 -2.81426 0 0 
115 1 115 0.179657 0.579959 0 0 -0.614308 -0.127025 -0.237979 -0.0427367 0 0 -3.2935 0 0 
116 1 116 0.179633 0.619989 0 0 -0.636723 -0.0962365 -0.235285 -0.038141 0 0 -3.48721 0 0 
117 1 117 0.179606 0.660024 0 0 -0.674714 -0.0897026 -0.245403 -0.0226587 0 0 -3.93159 0 0 
118 1 118 0.179578 0.700064 0 0 -0.708264 -0.0682639 -0.249299 -0.0164713 0 0 -3.83813 0 0 
119 1 119 0.179548 0.740109 0 0 -0.742373 -0.0542644 -0.255768 0.00449141 0 0 -3.77405 0 0 
120 1 120 0.179521 0.78016 0 0 -0.762428 -0.0281513 -0.253819 0.019579 0 0 -3.07264 0 0 
121 1 121 0.179498 0.820214 0 0 -0.801174 -0.0397803 -0.270027 0.0413624 0 0 -2.10847 0 0 
122 1 122 0.179483 0.860272 0 0 -0.786978 0.013583 -0.24829 0.0601416 0 0 -1.18689 0 0 
123 1 123 0.179471 0.900333 0 0 -0.792203 -0.0111246 -0.257919 0.0561525 0 0 0.10325 0 0 
124 1 124 0.179454 0.940392 0 0 -0.758494 0.0204979 -0.236905 0.0402563 0 0 0.0132108 0 0 
125 1 125 0.179432 0.980451 0 0 -0.704945 0.0100497 -0.223044 0.0380488 0 0 -2.31933 0 0 
126 1 126 0.219986 0.0199798 0 0 -0.218986 -0.353486 -0.183692 -0.0640003 0 0 -1.7915 0 0 
127 1 127 0.219967 0.0599458 0 0 -0.275314 -0.300673 -0.184822 -0.042578 0 0 -3.29744 0 0 
128 1 128 0.219957 0.0999213 0 0 -0.311971 -0.282952 -0.190907 -0.0397792 0 0 -2.51449 0 0 
129 1 129 0.21994 0.139901 0 0 -0.33255 -0.272339 -0.19411 -0.0689603 0 0 -1.37055 0 0 
130 1 130 0.219909 0.179883 0 0 -0.351645 -0.275762 -0.201348 -0.0924471 0 0 0.0533615 0 0 
131 1 131 0.219868 0.219867 0 0 -0.365343 -0.258671 -0.200257 -0.106245 0 0 1.03554 0 0 
132 1 132 0.219822 0.259855 0 0 -0.396807 -0.253287 -0.208641 -0.112877 0 0 1.29384 0 0 
133 1 133 0.219777 0.299848 0 0 -0.420425 -0.21565 -0.204133 -0.109022 0 0 1.17901 0 0 
134 1 134 0.219736 0.339848 0 0 -0.461242 -0.210372 -0.215559 -0.101103 0 0 0.743135 0 0 
135 1 135 0.2197 0.379853 0 0 -0.480921 -0.163565 -0.206837 -0.0913781 0 0 0.244335 0 0 
136 1 136 0.21967 0.419865 0 0 -0.520715 -0.167026 -0.220744 -0.0804522 0 0 -0.304504 0 0 
137 1 137 0.219643 0.459882 0 0 -0.534878 -0.122873 -0.211101 -0.0724514 0 0 -0.773387 0 0 
138 1 138 0.219618 0.499904 0 0 -0.570999 -0.128519 -0.224531 -0.0629172 0 0 -1.31703 0 0 
139 1 139 0.219593 0.53993 0 0 -0.58829 -0.0923924 -0.218474 -0.0592058 0 0 -1.72271 0 0 
140 1 140 0.219566 0.579962 0 0 -0.623404 -0.0897115 -0.228903 -0.0502098 0 0 -2.34117 0 0 
141 1 141 0.219536 0.619998 0 0 -0.650023 -0.0629373 -0.228853 -0.0503717 0 0 -2.64421 0 0 
142 1 142 0.219503 0.660039 0 0 -0.685038 -0.0523947 -0.236723 -0.038008 0 0 -3.225 0 0 
143 1 143 0.219468 0.700086 0 0 -0.710864 -0.0295744 -0.23769 -0.0374302 0 0 -3.1456 0 0 
144 1 144 0.219432 0.740137 0 0 -0.745391 -0.0312408 -0.249331 -0.0192627 0 0 -3.16954 0 0 
145 1 145 0.219401 0.78019 0 0 -0.751635 -0.00291101 -0.242227 -0.00624153 0 0 -2.54509 0 0 
146 1 146 0.219374 0.820247 0 0 -0.773968 -0.0248451 -0.256467 0.00308236 0 0 -1.28828 0 0 
147 1 147 0.219357 0.860303 0 0 -0.771298 0.00743968 -0.245223 0.0292969 0 0 -0.995101 0 0 
148 1 148 0.219346 0.900363 0 0 -0.782614 -0.0145716 -0.255944 0.015654 0 0 0.0948125 0 0 
149 1 149 0.219332 0.940421 0 0 -0.74767 0.0248375 -0.232028 0.00375481 0 0 -0.122077 0 0 
150 1 150 0.219317 0.98048 0 0 -0.734628 -0.00511504 -0.237467 0.0205142 0 0 -2.11401 0 0 
151 1 151 0.259978 0.0199772 0 0 -0.242595 -0.398399 -0.205715 -0.0954091 0 0 -1.33123 0 0 
152 1 152 0.259945 0.0599395 0 0 -0.300518 -0.324273 -0.200507 -0.0563752 0 0 -2.60047 0 0 
153 1 153 0.259926 0.0999141 0 0 -0.349174 -0.298783 -0.207954 -0.044039 0 0 -2.29169 0 0 
154 1 154 0.259904 0.139895 0 0 -0.365484 -0.272971 -0.204899 -0.064895 0 0 -1.23409 0 0 
155 1 155 0.259872 0.17988 0 0 -0.373896 -0.274707 -0.208161 -0.0833868 0 0 0.505908 0 0 
156 1 156 0.259828 0.219865 0 0 -0.375367 -0.259844 -0.203856 -0.0993643 0 0 1.81182 0 0 
157 1 157 0.259778 0.259853 0 0 -0.394802 -0.258071 -0.209534 -0.107828 0 0 2.43886 0 0 
158 1 158 0.259727 0.299844 0 0 -0.407176 -0.219008 -0.200954 -0.105199 0 0 2.59824 0 0 
159 1 159 0.259679 0.339843 0 0 -0.441552 -0.210246 -0.209188 -0.0984848 0 0 2.24682 0 0 
160 1 160 0.259637 0.379847 0 0 -0.458533 -0.158704 -0.198078 -0.0894714 0 0 1.72372 0 0 
161 1 161 0.2596 0.419859 0 0 -0.496184 -0.152046 -0.20804 -0.0793815 0 0 1.04498 0 0 
162 1 162 0.259567 0.459876 0 0 -0.513708 -0.104613 -0.198426 -0.0732285 0 0 0.408207 0 0 
163 1 163 0.259537 0.4999 0 0 -0.549801 -0.0977897 -0.207834 -0.0656299 0 0 -0.346627 0 0 
164 1 164 0.259505 0.53993 0 0 -0.573355 -0.0626834 -0.204121 -0.0654772 0 0 -0.936036 0 0 
165 1 165 0.259472 0.579966 0 0 -0.608016 -0.0497337 -0.2111 -0.0589942 0 0 -1.76962 0 0 
166 1 166 0.259436 0.620007 0 0 -0.637525 -0.0268235 -0.213222 -0.0635688 0 0 -2.19346 0 0 
167 1 167 0.259396 0.660054 0 0 -0.670221 -0.0148369 -0.21988 -0.0534435 0 0 -2.90602 0 0 
168 1 168 0.259356 0.700104 0 0 -0.692555 0.000565936 -0.222108 -0.0549153 0 0 -2.88315 0 0 
169 1 169 0.259315 0.740158 0 0 -0.717753 -0.00720492 -0.23271 -0.0415402 0 0 -2.77972 0 0 
170 1 170 0.259282 0.780212 0 0 -0.722025 0.00888772 -0.228909 -0.0262363 0 0 -2.39462 0 0 
171 1 171 0.259254 0.820267 0 0 -0.740368 -0.0269169 -0.246325 -0.0226391 0 0 -1.17851 0 0 
172 1 172 0.259236 0.860321 0 0 -0.723011 0.0167147 -0.22671 -0.000488973 0 0 -1.04354 0 0 
173 1 173 0.259224 0.900378 0 0 -0.753962 -0.0273491 -0.250838 -0.0093317 0 0 -0.571506 0 0 
174 1 174 0.25921 0.940433 0 0 -0.73291 0.0274601 -0.226438 -0.0166298 0 0 -1.14011 0 0 
175 1 175 0.259198 0.980493 0 0 -0.737456 0.00751292 -0.234315 -0.00675064 0 0 -2.32086 0 0 
176 1 176 0.29997 0.0199766 0 0 -0.236392 -0.405285 -0.205935 -0.125733 0 0 -0.557673 0 0 
177 1 177 0.299922 0.0599371 0 0 -0.286337 -0.328502 -0.197308 -0.076193 0 0 -1.29936 0 0 
178 1 178 0.299893 0.0999108 0 0 -0.340393 -0.293649 -0.20348 -0.0536711 0 0 -1.54058 0 0 
179 1 179 0.299866 0.139894 0 0 -0.358 -0.250184 -0.195168 -0.0620618 0 0 -0.832187 0 0 
180 1 180 0.299832 0.179881 0 0 -0.367715 -0.256018 -0.200166 -0.0747618 0 0 0.872794 0 0 
181 1 181 0.299788 0.219868 0 0 -0.360342 -0.24224 -0.193368 -0.0921766 0 0 2.35626 0 0 
182 1 182 0.299736 0.259857 0 0 -0.371567 -0.247223 -0.198577 -0.102585 0 0 3.29909 0 0 
183 1 183 0.29968 0.299848 0 0 -0.379474 -0.213969 -0.190431 -0.102991 0 0 3.68084 0 0 
184 1 184 0.299627 0.339845 0 0 -0.41327 -0.206658 -0.198943 -0.0985029 0 0 3.4281 0 0 
185 1 185 0.299577 0.379847 0 0 -0.435732 -0.157828 -0.190468 -0.0909489 0 0 2.91156 0 0 
186 1 186 0.299533 0.419858 0 0 -0.478708 -0.145164 -0.200211 -0.0820246 0 0 2.12009 0 0 
187 1 187 0.299493 0.459875 0 0 -0.50693 -0.0997934 -0.194698 -0.0776053 0 0 1.3276 0 0 
188 1 188 0.299455 0.499901 0 0 -0.547197 -0.0823694 -0.202041 -0.0714032 0 0 0.353551 0 0 
189 1 189 0.299417 0.539933 0 0 -0.579375 -0.0505225 -0.202147 -0.0741105 0 0 -0.422188 0 0 
190 1 190 0.299377 0.579972 0 0 -0.614033 -0.0285964 -0.206239 -0.0693502 0 0 -1.44782 0 0 
191 1 191 0.299335 0.620017 0 0 -0.646166 -0.0113241 -0.211017 -0.0764757 0 0 -1.96189 0 0 
192 1 192 0.299289 0.660067 0 0 -0.673759 0.00128044 -0.215835 -0.0681638 0 0 -2.66916 0 0 
193 1 193 0.299244 0.700119 0 0 -0.691252 0.00965829 -0.218766 -0.0690013 0 0 -2.6564 0 0 
194 1 194 0.299202 0.740173 0 0 -0.709557 -0.00979685 -0.230909 -0.0576813 0 0 -2.41151 0 0 
195 1 195 0.299167 0.780226 0 0 -0.699153 0.00913663 -0.221475 -0.0419769 0 0 -2.03946 0 0 
196 1 196 0.29914 0.820278 0 0 -0.721173 -0.0446608 -0.245859 -0.0394539 0 0 -1.03546 0 0 
197 1 197 0.29912 0.860328 0 0 -0.70534 0.00607383 -0.22445 -0.0226355 0 0 -1.21389 0 0 
198 1 198 0.299106 0.900382 0 0 -0.739619 -0.0334509 -0.248187 -0.0321129 0 0 -1.08882 0 0 
199 1 199 0.299091 0.940436 0 0 -0.730212 0.0163196 -0.229153 -0.0338781 0 0 -1.68223 0 0 
200 1 200 0.299079 0.980494 0 0 -0.749816 -0.00121392 -0.241097 -0.0224827 0 0 -2.00058 0 0 
201 1 201 0.339965 0.0199778 0 0 -0.204113 -0.377913 -0.186762 -0.14572 0 0 0.490422 0 0 
202 1 202 0.339905 0.0599386 0 0 -0.241628 -0.314637 -0.178483 -0.0954388 0 0 0.569644 0 0 
203 1 203 0.339863 0.0999116 0 0 -0.304519 -0.277477 -0.186751 -0.0679111 0 0 -0.280962 0 0 
204 1 204 0.339828 0.139896 0 0 -0.330474 -0.221026 -0.176951 -0.062748 0 0 -0.140873 0 0 
205 1 205 0.339793 0.179885 0 0 -0.347013 -0.229745 -0.185068 -0.0677996 0 0 1.22926 0 0 
206 1 206 0.33975 0.219875 0 0 -0.337549 -0.21537 -0.177408 -0.0858212 0 0 2.60431 0 0 
207 1 207 0.339696 0.259866 0 0 -0.348131 -0.231226 -0.185904 -0.0989783 0 0 3.65146 0 0 
208 1 208 0.339637 0.299857 0 0 -0.354499 -0.206861 -0.18012 -0.103793 0 0 4.13328 0 0 
209 1 209 0.339578 0.339853 0 0 -0.3874 -0.202576 -0.189317 -0.102649 0 0 3.88229 0 0 
210 1 210 0.339521 0.379853 0 0 -0.414811 -0.160127 -0.184484 -0.0974799 0 0 3.25497 0 0 
211 1 211 0.339469 0.419863 0 0 -0.459913 -0.14044 -0.192652 -0.089941 0 0 2.23691 0 0 
212 1 212 0.33942 0.45988 0 0 -0.497745 -0.0990803 -0.191518 -0.0869553 0 0 1.20646 0 0 
213 1 213 0.339374 0.499906 0 0 -0.541432 -0.0710967 -0.196565 -0.081428 0 0 -0.0120245 0 0 
214 1 214 0.339327 0.539939 0 0 -0.582765 -0.0436987 -0.201043 -0.0856286 0 0 -0.939364 0 0 
215 1 215 0.33928 0.57998 0 0 -0.618114 -0.0157004 -0.203406 -0.0810443 0 0 -2.06264 0 0 
216 1 216 0.339231 0.620027 0 0 -0.650206 -0.00195844 -0.209305 -0.0882674 0 0 -2.57806 0 0 
217 1 217 0.33918 0.660078 0 0 -0.672383 0.00612064 -0.213837 -0.0792732 0 0 -3.19697 0 0 
218 1 218 0.339133 0.700131 0 0 -0.67662 0.0158658 -0.212066 -0.0777956 0 0 -3.10495 0 0 
219 1 219 0.33909 0.740183 0 0 -0.688666 -0.0170978 -0.226539 -0.0664343 0 0 -2.73681 0 0 
220 1 220 0.339057 0.780233 0 0 -0.667223 0.0063147 -0.212116 -0.0493082 0 0 -2.46888 0 0 
221 1 221 0.33903 0.820282 0 0 -0.683322 -0.0483924 -0.234885 -0.0496681 0 0 -1.62341 0 0 
222 1 222 0.339009 0.860329 0 0 -0.670582 0.00181295 -0.214644 -0.0388321 0 0 -2.02814 0 0 
223 1 223 0.338992 0.90038 0 0 -0.709057 -0.0263176 -0.236062 -0.0459721 0 0 -2.38906 0 0 
224 1 224 0.338974 0.940433 0 0 -0.704663 0.0168635 -0.220762 -0.0457794 0 0 -2.84453 0 0 
225 1 225 0.338961 0.980489 0 0 -0.720289 0.00129714 -0.230792 -0.035897 0 0 -2.17344 0 0 
226 1 226 0.379963 0.0199804 0 0 -0.153494 -0.32234 -0.152644 -0.152352 0 0 1.4723 0 0 
227 1 227 0.379894 0.0599435 0 0 -0.174949 -0.286118 -0.1479 -0.116271 0 0 2.34475 0 0 
228 1 228 0.379839 0.099916 0 0 -0.242175 -0.252434 -0.158674 -0.0906766 0 0 1.0085 0 0 
229 1 229 0.379795 0.1399 0 0 -0.28169 -0.189238 -0.151067 -0.0712413 0 0 0.54288 0 0 
230 1 230 0.379756 0.179892 0 0 -0.317678 -0.202051 -0.166743 -0.0676522 0 0 1.2842 0 0 
231 1 231 0.379712 0.219884 0 0 -0.319444 -0.188612 -0.162994 -0.084732 0 0 2.29061 0 0 
232 1 232 0.379658 0.259877 0 0 -0.33813 -0.216937 -0.178098 -0.0995578 0 0 3.29115 0 0 
233 1 233 0.379596 0.299869 0 0 -0.349405 -0.204418 -0.177699 -0.109124 0 0 3.79258 0 0 
234 1 234 0.379531 0.339864 0 0 -0.38688 -0.206936 -0.190551 -0.112053 0 0 3.54089 0 0 
235 1 235 0.379466 0.379864 0 0 -0.425205 -0.176845 -0.193198 -0.109775 0 0 2.8633 0 0 
236 1 236 0.379404 0.419872 0 0 -0.476706 -0.153196 -0.20215 -0.103569 0 0 1.7063 0 0 
237 1 237 0.379346 0.459888 0 0 -0.527283 -0.119507 -0.207578 -0.101274 0 0 0.512869 0 0 
238 1 238 0.37929 0.499914 0 0 -0.573639 -0.0822901 -0.210516 -0.0949922 0 0 -0.909678 0 0 
239 1 239 0.379235 0.539948 0 0 -0.61867 -0.0567409 -0.216779 -0.0987839 0 0 -1.97806 0 0 
240 1 240 0.379179 0.57999 0 0 -0.65 -0.0246573 -0.216536 -0.0921946 0 0 -3.18528 0 0 
241 1 241 0.379125 0.620037 0 0 -0.673997 -0.00867658 -0.219114 -0.0973924 0 0 -3.64386 0 0 
242 1 242 0.379071 0.660088 0 0 -0.690425 -0.00887601 -0.22446 -0.0860499 0 0 -4.06197 0 0 
243 1 243 0.379023 0.700139 0 0 -0.682308 0.00417082 -0.217655 -0.0802837 0 0 -3.78291 0 0 
244 1 244 0.378982 0.74019 0 0 -0.688563 -0.0378271 -0.233172 -0.0693509 0 0 -3.12266 0 0 
245 1 245 0.37895 0.780236 0 0 -0.662491 -0.0120644 -0.216505 -0.0511598 0 0 -2.88305 0 0 
246 1 246 0.378926 0.820282 0 0 -0.676558 -0.0596816 -0.236341 -0.053235 0 0 -2.28597 0 0 
247 1 247 0.378903 0.860327 0 0 -0.665159 -0.0110184 -0.217026 -0.0510315 0 0 -2.77691 0 0 
248 1 248 0.378881 0.900377 0 0 -0.695104 -0.0232521 -0.230588 -0.0548491 0 0 -3.38591 0 0 
249 1 249 0.378861 0.940427 0 0 -0.689772 0.00898506 -0.218507 -0.0475947 0 0 -3.65633 0 0 
250 1 250 0.378848 0.980481 0 0 -0.696285 -0.0062947 -0.225514 -0.0388404 0 0 -2.15314 0 0 
251 1 251 0.419964 0.0199839 0 0 -0.103516 -0.256795 -0.11555 -0.14601 0 0 2.24063 0 0 
252 1 252 0.419892 0.0599503 0 0 -0.117543 -0.257067 -0.12014 -0.136682 0 0 3.84187 0 0 
253 1 253 0.419823 0.0999228 0 0 -0.188021 -0.232847 -0.134991 -0.119622 0 0 2.29572 0 0 
254 1 254 0.419766 0.139906 0 0 -0.242848 -0.171704 -0.132963 -0.0884933 0 0 1.21478 0 0 
255 1 255 0.419721 0.179898 0 0 -0.298952 -0.184945 -0.155233 -0.0764864 0 0 1.03044 0 0 
256 1 256 0.419674 0.219893 0 0 -0.31426 -0.16869 -0.154929 -0.0898742 0 0 1.38111 0 0 
257 1 257 0.419619 0.259888 0 0 -0.342841 -0.205444 -0.175919 -0.104631 0 0 2.10848 0 0 
258 1 258 0.419555 0.299882 0 0 -0.359764 -0.203553 -0.180749 -0.11865 0 0 2.50513 0 0 
259 1 259 0.419484 0.339878 0 0 -0.39851 -0.211292 -0.195689 -0.125566 0 0 2.22352 0 0 
260 1 260 0.41941 0.379877 0 0 -0.441505 -0.192621 -0.203508 -0.126172 0 0 1.48383 0 0 
261 1 261 0.419338 0.419884 0 0 -0.490911 -0.162951 -0.209852 -0.120895 0 0 0.177006 0 0 
262 1 262 0.419269 0.459899 0 0 -0.545937 -0.134566 -0.218417 -0.118432 0 0 -1.15813 0 0 
263 1 263 0.419202 0.499924 0 0 -0.590784 -0.0894788 -0.218339 -0.110029 0 0 -2.69971 0 0 
264 1 264 0.419138 0.539959 0 0 -0.636718 -0.0641823 -0.224975 -0.111814 0 0 -3.74023 0 0 
265 1 265 0.419075 0.58 0 0 -0.666598 -0.0338181 -0.224819 -0.101379 0 0 -4.81845 0 0 
266 1 266 0.419016 0.620048 0 0 -0.681249 -0.0138273 -0.223102 -0.102252 0 0 -5.05243 0 0 
267 1 267 0.418961 0.660097 0 0 -0.689697 -0.0225752 -0.228631 -0.0875562 0 0 -5.16461 0 0 
268 1 268 0.418915 0.700146 0 0 -0.664991 -0.00266637 -0.214286 -0.0762607 0 0 -4.76915 0 0 
269 1 269 0.418876 0.740194 0 0 -0.660068 -0.0453119 -0.226416 -0.0659399 0 0 -3.98933 0 0 
270 1 270 0.418847 0.780237 0 0 -0.62691 -0.0144163 -0.205822 -0.0493002 0 0 -3.87759 0 0 
271 1 271 0.418824 0.820281 0 0 -0.635534 -0.0463859 -0.218872 -0.0533918 0 0 -3.59537 0 0 
272 1 272 0.418799 0.860324 0 0 -0.631063 -0.00615779 -0.204502 -0.0592303 0 0 -4.08518 0 0 
273 1 273 0.418773 0.900373 0 0 -0.655918 -0.00624434 -0.212519 -0.0601306 0 0 -4.66883 0 0 
274 1 274 0.418752 0.940423 0 0 -0.651823 0.0113205 -0.205556 -0.0439788 0 0 -4.61468 0 0 
275 1 275 0.41874 0.980473 0 0 -0.650212 -0.00767809 -0.211146 -0.036383 0 0 -2.42616 0 0 
276 1 276 0.459968 0.0199871 0 0 -0.0655042 -0.198253 -0.0845638 -0.131928 0 0 2.4222 0 0 
277 1 277 0.459895 0.0599574 0 0 -0.0749917 -0.229049 -0.0974895 -0.156804 0 0 4.29959 0 0 
278 1 278 0.459813 0.0999303 0 0 -0.140056 -0.215253 -0.113944 -0.153509 0 0 2.91473 0 0 
279 1 279 0.459743 0.139912 0 0 -0.208057 -0.165909 -0.119933 -0.115619 0 0 1.50547 0 0 
280 1 280 0.459688 0.179904 0 0 -0.286021 -0.176843 -0.148477 -0.096312 0 0 0.463083 0 0 
281 1 281 0.459635 0.2199 0 0 -0.322417 -0.158182 -0.154174 -0.102858 0 0 0.154912 0 0 
282 1 282 0.459578 0.259898 0 0 -0.364301 -0.198327 -0.180527 -0.114699 0 0 0.560755 0 0 
283 1 283 0.45951 0.299893 0 0 -0.387222 -0.203971 -0.189707 -0.131231 0 0 0.846296 0 0 
284 1 284 0.459434 0.339891 0 0 -0.42514 -0.214956 -0.205426 -0.141088 0 0 0.609748 0 0 
285 1 285 0.459352 0.379891 0 0 -0.47123 -0.207749 -0.217927 -0.14443 0 0 -0.0426133 0 0 
286 1 286 0.45927 0.419898 0 0 -0.519501 -0.175597 -0.22311 -0.139888 0 0 -1.29023 0 0 
287 1 287 0.45919 0.459913 0 0 -0.578863 -0.153504 -0.235095 -0.136752 0 0 -2.55105 0 0 
288 1 288 0.459112 0.499938 0 0 -0.622201 -0.105324 -0.233538 -0.124991 0 0 -4.0648 0 0 
289 1 289 0.459039 0.539972 0 0 -0.662382 -0.0770984 -0.237383 -0.12301 0 0 -5.02936 0 0 
290 1 290 0.45897 0.580013 0 0 -0.684833 -0.0499605 -0.235875 -0.1071 0 0 -6.0016 0 0 
291 1 291 0.458908 0.620059 0 0 -0.684031 -0.0227264 -0.226858 -0.101864 0 0 -6.08031 0 0 
292 1 292 0.458853 0.660107 0 0 -0.685268 -0.0399021 -0.23278 -0.0837299 0 0 -5.89359 0 0 
293 1 293 0.45881 0.700153 0 0 -0.652776 -0.0162803 -0.214736 -0.0675226 0 0 -5.34514 0 0 
294 1 294 0.458776 0.740197 0 0 -0.647323 -0.0575211 -0.226243 -0.0589742 0 0 -4.39806 0 0 
295 1 295 0.458749 0.780237 0 0 -0.621588 -0.0284995 -0.208638 -0.0459779 0 0 -4.35408 0 0 
296 1 296 0.458726 0.82028 0 0 -0.627886 -0.0415318 -0.214852 -0.0517667 0 0 -4.40165 0 0 
297 1 297 0.458699 0.860323 0 0 -0.62408 -0.0102216 -0.203563 -0.0635072 0 0 -4.89993 0 0 
298 1 298 0.45867 0.900371 0 0 -0.631499 0.00128658 -0.202248 -0.0608463 0 0 -5.43392 0 0 
299 1 299 0.458649 0.940419 0 0 -0.617367 0.0114595 -0.194436 -0.0342773 0 0 -5.33182 0 0 
300 1 300 0.45864 0.980466 0 0 -0.60591 -0.0102519 -0.197732 -0.0282737 0 0 -2.96865 0 0 
301 1 301 0.499972 0.0199892 0 0 -0.0565514 -0.166155 -0.0713946 -0.118048 0 0 2.03754 0 0 
302 1 302 0.4999 0.0599628 0 0 -0.073408 -0.214839 -0.0924211 -0.175029 0 0 3.84038 0 0 
303 1 303 0.499808 0.099937 0 0 -0.127173 -0.210809 -0.108383 -0.186962 0 0 3.07485 0 0 
304 1 304 0.499724 0.139917 0 0 -0.197843 -0.178795 -0.12079 -0.149056 0 0 1.64815 0 0 
305 1 305 0.499655 0.179907 0 0 -0.282353 -0.178091 -0.1477 -0.124778 0 0 -0.165349 0 0 
306 1 306 0.499595 0.219904 0 0 -0.330271 -0.152101 -0.154743 -0.121669 0 0 -1.16642 0 0 
307 1 307 0.499532 0.259904 0 0 -0.376433 -0.183598 -0.179692 -0.127666 0 0 -1.16829 0 0 
308 1 308 0.499461 0.299903 0 0 -0.400986 -0.190574 -0.189824 -0.144449 0 0 -0.987737 0 0 
309 1 309 0.49938 0.339904 0 0 -0.433651 -0.200921 -0.20365 -0.155949 0 0 -1.0747 0 0 
310 1 310 0.499291 0.379906 0 0 -0.474954 -0.200703 -0.216859 -0.161601 0 0 -1.5219 0 0 
311 1 311 0.4992 0.419914 0 0 -0.512585 -0.165677 -0.217697 -0.157271 0 0 -2.64573 0 0 
312 1 312 0.499109 0.45993 0 0 -0.562567 -0.144026 -0.226807 -0.152913 0 0 -3.81999 0 0 
313 1 313 0.499022 0.499955 0 0 -0.596689 -0.095192 -0.222075 -0.137037 0 0 -5.3013 0 0 
314 1 314 0.49894 0.539988 0 0 -0.626682 -0.0626924 -0.221269 -0.130498 0 0 -6.13608 0 0 
315 1 315 0.498866 0.580029 0 0 -0.646329 -0.0447805 -0.221826 -0.108887 0 0 -6.88896 0 0 
316 1 316 0.498803 0.620072 0 0 -0.636929 -0.0142821 -0.208998 -0.09708 0 0 -6.75208 0 0 
317 1 317 0.49875 0.660117 0 0 -0.635 -0.0389008 -0.216293 -0.0763854 0 0 -6.31026 0 0 
318 1 318 0.49871 0.700159 0 0 -0.597621 -0.0129765 -0.195944 -0.0564087 0 0 -5.84146 0 0 
319 1 319 0.49868 0.7402 0 0 -0.586002 -0.0424677 -0.201688 -0.0508252 0 0 -5.07626 0 0 
320 1 320 0.498655 0.780239 0 0 -0.56542 -0.0149421 -0.186227 -0.043739 0 0 -5.32289 0 0 
321 1 321 0.498631 0.82028 0 0 -0.570632 -0.00928647 -0.186084 -0.0506645 0 0 -5.75819 0 0 
322 1 322 0.498602 0.860324 0 0 -0.575996 0.00773453 -0.182338 -0.0654058 0 0 -6.09428 0 0 
323 1 323 0.498571 0.90037 0 0 -0.58377 0.0152641 -0.182416 -0.0598941 0 0 -6.14556 0 0 
324 1 324 0.498552 0.940416 0 0 -0.576794 0.0145942 -0.18039 -0.0239921 0 0 -5.77055 0 0 
325 1 325 0.498547 0.98046 0 0 -0.571773 -0.0147465 -0.188205 -0.0192743 0 0 -3.40162 0 0 
326 1 326 0.539974 0.0199897 0 0 -0.0741479 -0.165842 -0.076939 -0.112867 0 0 1.05628 0 0 
327 1 327 0.539902 0.0599654 0 0 -0.0979353 -0.208629 -0.0982991 -0.189599 0 0 2.29777 0 0 
328 1 328 0.539804 0.0999417 0 0 -0.129792 -0.208497 -0.108481 -0.213708 0 0 2.46761 0 0 
329 1 329 0.539707 0.13992 0 0 -0.191241 -0.195783 -0.124124 -0.183135 0 0 1.4706 0 0 
330 1 330 0.539624 0.179908 0 0 -0.271471 -0.178382 -0.144299 -0.157412 0 0 -0.634766 0 0 
331 1 331 0.539553 0.219905 0 0 -0.329505 -0.146998 -0.152858 -0.143292 0 0 -1.99517 0 0 