ITEM: TIMESTEP
0
ITEM: NUMBER OF ATOMS
6875
ITEM: BOX BOUNDS sm sm sm
0 4
0 2
0 0
ITEM: ATOMS id type tag x y z damage s11 s22 s33 s12 s13 s23 vx T ienergy 
1 1 1 0.019996 0.0199975 0 0 -0.0599934 -0.0629929 -0.0394087 -0.0220833 0 0 -0.0259006 0 0 
2 1 2 0.0199915 0.0599931 0 0 -0.108617 -0.0651252 -0.0556756 -0.0341976 0 0 0.124772 0 0 
3 1 3 0.0199901 0.0999923 0 0 -0.137744 -0.0700131 -0.0665872 -0.0379662 0 0 0.102601 0 0 
4 1 4 0.019989 0.139991 0 0 -0.171502 -0.0829212 -0.0815587 -0.0432891 0 0 -0.262677 0 0 
5 1 5 0.0199859 0.179991 0 0 -0.209489 -0.102759 -0.10011 -0.0426541 0 0 -0.584049 0 0 
6 1 6 0.0199845 0.21999 0 0 -0.233043 -0.112974 -0.110947 -0.0442408 0 0 -0.586349 0 0 
7 1 7 0.0199833 0.25999 0 0 -0.248871 -0.12245 -0.119069 -0.045162 0 0 -0.547944 0 0 
8 1 8 0.0199825 0.299989 0 0 -0.26496 -0.126774 -0.12562 -0.0500991 0 0 -0.500976 0 0 
9 1 9 0.0199806 0.339989 0 0 -0.286066 -0.139607 -0.136516 -0.0498646 0 0 -0.388762 0 0 
10 1 10 0.0199794 0.379988 0 0 -0.305749 -0.142169 -0.143658 -0.0541641 0 0 -0.0941185 0 0 
11 1 11 0.0199762 0.419989 0 0 -0.331257 -0.159564 -0.157437 -0.0505641 0 0 -0.282565 0 0 
12 1 12 0.0199732 0.459989 0 0 -0.343337 -0.156327 -0.16028 -0.0523137 0 0 -0.513402 0 0 
13 1 13 0.0199686 0.49999 0 0 -0.365579 -0.171873 -0.17242 -0.0478258 0 0 -0.870589 0 0 
14 1 14 0.0199647 0.539991 0 0 -0.379406 -0.166336 -0.175086 -0.045935 0 0 -0.874748 0 0 
15 1 15 0.0199584 0.579994 0 0 -0.390877 -0.175448 -0.181701 -0.0325096 0 0 -0.685945 0 0 
16 1 16 0.0199515 0.619995 0 0 -0.397936 -0.161443 -0.17947 -0.0284885 0 0 -0.486476 0 0 
17 1 17 0.0199453 0.659999 0 0 -0.406955 -0.174987 -0.186722 -0.00170281 0 0 -1.28738 0 0 
18 1 18 0.0199463 0.700001 0 0 -0.407742 -0.16427 -0.183531 0.000815775 0 0 -1.51234 0 0 
19 1 19 0.0199479 0.740006 0 0 -0.435244 -0.191714 -0.20119 0.0252637 0 0 -1.96587 0 0 
20 1 20 0.0199536 0.780007 0 0 -0.448487 -0.186578 -0.203796 0.0281542 0 0 -1.60405 0 0 
21 1 21 0.0199551 0.820011 0 0 -0.49186 -0.228362 -0.231174 0.04597 0 0 -1.42145 0 0 
22 1 22 0.0199591 0.860013 0 0 -0.513852 -0.208791 -0.231954 0.0485434 0 0 -0.813134 0 0 
23 1 23 0.0199561 0.90002 0 0 -0.587038 -0.256195 -0.270747 0.0712243 0 0 -0.739669 0 0 
24 1 24 0.0199581 0.940024 0 0 -0.590599 -0.215585 -0.258834 0.105728 0 0 -0.628525 0 0 
25 1 25 0.0199413 0.980049 0 0 -0.748523 -0.161211 -0.302141 0.119032 0 0 0.295703 0 0 
26 1 26 0.0599953 0.0199941 0 0 -0.0634504 -0.108704 -0.0551718 -0.0279088 0 0 0.0638588 0 0 
27 1 27 0.0599863 0.0599831 0 0 -0.092198 -0.0903113 -0.0584915 -0.0332036 0 0 0.0778838 0 0 
28 1 28 0.0599766 0.0999782 0 0 -0.13833 -0.0891374 -0.0729081 -0.0377123 0 0 -0.494575 0 0 
29 1 29 0.0599686 0.139975 0 0 -0.178163 -0.0953929 -0.0876911 -0.0487886 0 0 -0.885073 0 0 
30 1 30 0.0599619 0.179974 0 0 -0.205581 -0.106212 -0.0999657 -0.0435632 0 0 -1.02605 0 0 
31 1 31 0.0599585 0.219971 0 0 -0.227309 -0.116455 -0.110228 -0.0447771 0 0 -0.857907 0 0 
32 1 32 0.0599546 0.25997 0 0 -0.253657 -0.130269 -0.123121 -0.0424158 0 0 -0.77298 0 0 
33 1 33 0.0599513 0.299968 0 0 -0.277415 -0.137025 -0.132915 -0.0492591 0 0 -0.677791 0 0 
34 1 34 0.059947 0.339968 0 0 -0.301579 -0.148164 -0.144251 -0.043412 0 0 -0.794723 0 0 
35 1 35 0.0599441 0.379967 0 0 -0.315345 -0.14615 -0.148023 -0.0493701 0 0 -0.49437 0 0 
36 1 36 0.0599405 0.419968 0 0 -0.336149 -0.158697 -0.158734 -0.0404927 0 0 -0.554993 0 0 
37 1 37 0.0599404 0.459968 0 0 -0.347682 -0.151502 -0.160131 -0.042803 0 0 0.0792985 0 0 
38 1 38 0.0599388 0.49997 0 0 -0.371516 -0.165779 -0.172375 -0.0364643 0 0 0.4635 0 0 
39 1 39 0.0599385 0.539973 0 0 -0.38222 -0.150943 -0.171047 -0.0369184 0 0 0.505044 0 0 
40 1 40 0.0599398 0.579979 0 0 -0.405387 -0.155091 -0.179823 -0.0198791 0 0 0.0767953 0 0 
41 1 41 0.059944 0.619986 0 0 -0.415681 -0.139341 -0.178071 -0.0253236 0 0 0.336612 0 0 
42 1 42 0.0599456 0.659996 0 0 -0.437437 -0.148249 -0.187924 0.00458358 0 0 0.0322294 0 0 
43 1 43 0.0599451 0.700006 0 0 -0.445415 -0.149282 -0.190821 -0.00509852 0 0 0.836827 0 0 
44 1 44 0.0599363 0.740016 0 0 -0.466782 -0.164099 -0.202451 0.0171822 0 0 0.662019 0 0 
45 1 45 0.0599289 0.780024 0 0 -0.475319 -0.16964 -0.206976 0.0192951 0 0 0.564328 0 0 
46 1 46 0.0599176 0.820033 0 0 -0.504262 -0.188032 -0.222192 0.0338291 0 0 0.762652 0 0 
47 1 47 0.0599063 0.860043 0 0 -0.528825 -0.175608 -0.226103 0.0426367 0 0 0.657975 0 0 
48 1 48 0.059892 0.900057 0 0 -0.55568 -0.164066 -0.231016 0.0573713 0 0 1.01092 0 0 
49 1 49 0.0598759 0.940081 0 0 -0.657735 -0.105438 -0.244993 0.0949048 0 0 0.287458 0 0 
50 1 50 0.0598385 0.980123 0 0 -0.617517 0.0279958 -0.189166 -0.00466965 0 0 1.6099 0 0 
51 1 51 0.0999915 0.0199929 0 0 -0.0631655 -0.12262 -0.0595571 -0.0322227 0 0 0.0886818 0 0 
52 1 52 0.0999743 0.0599786 0 0 -0.093199 -0.123131 -0.0693453 -0.0450056 0 0 -0.0595478 0 0 
53 1 53 0.0999591 0.0999683 0 0 -0.141125 -0.119075 -0.0834104 -0.0467766 0 0 -0.892934 0 0 
54 1 54 0.0999467 0.139962 0 0 -0.176135 -0.109299 -0.0915061 -0.052574 0 0 -1.01046 0 0 
55 1 55 0.0999364 0.179959 0 0 -0.201372 -0.111674 -0.100371 -0.0444266 0 0 -1.21074 0 0 
56 1 56 0.0999286 0.219956 0 0 -0.229712 -0.122698 -0.113006 -0.0491203 0 0 -1.18644 0 0 
57 1 57 0.0999217 0.259954 0 0 -0.253681 -0.128804 -0.122662 -0.0433172 0 0 -1.34749 0 0 
58 1 58 0.0999148 0.299953 0 0 -0.276797 -0.139169 -0.133409 -0.0496178 0 0 -1.28918 0 0 
59 1 59 0.099907 0.339952 0 0 -0.298943 -0.141619 -0.141309 -0.0422529 0 0 -1.46291 0 0 
60 1 60 0.0998999 0.379952 0 0 -0.327626 -0.155112 -0.154851 -0.0486306 0 0 -1.20389 0 0 
61 1 61 0.0998915 0.419953 0 0 -0.347585 -0.156907 -0.161836 -0.0405227 0 0 -1.56032 0 0 
62 1 62 0.0998835 0.459955 0 0 -0.363317 -0.155178 -0.166337 -0.0443254 0 0 -1.74132 0 0 
63 1 63 0.0998743 0.499959 0 0 -0.373267 -0.150379 -0.167992 -0.0365064 0 0 -2.0277 0 0 
64 1 64 0.099865 0.539964 0 0 -0.380667 -0.137952 -0.166376 -0.0368968 0 0 -1.78261 0 0 
65 1 65 0.0998532 0.579973 0 0 -0.397652 -0.122959 -0.167013 -0.0241909 0 0 -1.25204 0 0 
66 1 66 0.0998403 0.619983 0 0 -0.418266 -0.126798 -0.174872 -0.0238833 0 0 -0.957019 0 0 
67 1 67 0.0998306 0.659996 0 0 -0.425999 -0.112875 -0.172882 -0.00270061 0 0 -1.58585 0 0 
68 1 68 0.0998279 0.700009 0 0 -0.446573 -0.123596 -0.18294 -0.00477704 0 0 -2.06024 0 0 
69 1 69 0.0998264 0.740023 0 0 -0.454231 -0.126558 -0.186353 0.00783583 0 0 -2.44818 0 0 
70 1 70 0.0998272 0.780038 0 0 -0.4733 -0.131727 -0.194144 0.0171888 0 0 -2.54184 0 0 
71 1 71 0.0998234 0.820054 0 0 -0.498165 -0.134169 -0.20292 0.0166126 0 0 -1.59511 0 0 
72 1 72 0.0998158 0.860072 0 0 -0.514361 -0.114909 -0.201943 0.0378155 0 0 -1.48954 0 0 
73 1 73 0.0998013 0.900097 0 0 -0.559674 -0.0864067 -0.207336 0.0342466 0 0 -0.157012 0 0 
74 1 74 0.0997743 0.940132 0 0 -0.576566 -0.0106554 -0.188419 0.0175632 0 0 0.0351161 0 0 
75 1 75 0.0997386 0.980172 0 0 -0.578901 -0.0360389 -0.197332 0.00323567 0 0 1.3506 0 0 
76 1 76 0.139993 0.0199917 0 0 -0.0789656 -0.143167 -0.0712124 -0.0391064 0 0 0.0795173 0 0 
77 1 77 0.139974 0.0599745 0 0 -0.105355 -0.147247 -0.0809804 -0.0575488 0 0 -0.0703865 0 0 
78 1 78 0.13995 0.0999615 0 0 -0.128657 -0.133049 -0.0839037 -0.0546889 0 0 -1.07677 0 0 
79 1 79 0.13993 0.139952 0 0 -0.157419 -0.118013 -0.088303 -0.0551121 0 0 -1.28724 0 0 
80 1 80 0.139914 0.179946 0 0 -0.197303 -0.123086 -0.102728 -0.0464505 0 0 -1.67754 0 0 
81 1 81 0.139903 0.219942 0 0 -0.231106 -0.127004 -0.114835 -0.0511536 0 0 -1.62398 0 0 
82 1 82 0.139892 0.25994 0 0 -0.258458 -0.127693 -0.123838 -0.0436248 0 0 -1.65274 0 0 
83 1 83 0.139882 0.299938 0 0 -0.290191 -0.147444 -0.140371 -0.0504472 0 0 -1.42502 0 0 
84 1 84 0.139872 0.339938 0 0 -0.310489 -0.146534 -0.146599 -0.0460214 0 0 -1.66372 0 0 
85 1 85 0.139862 0.379937 0 0 -0.333053 -0.160077 -0.158192 -0.0512965 0 0 -1.62804 0 0 
86 1 86 0.139854 0.419938 0 0 -0.343729 -0.152712 -0.159251 -0.0430759 0 0 -1.76503 0 0 
87 1 87 0.139848 0.45994 0 0 -0.362066 -0.151138 -0.164636 -0.0478183 0 0 -1.37534 0 0 
88 1 88 0.139841 0.499945 0 0 -0.380716 -0.138732 -0.166643 -0.0408968 0 0 -0.969504 0 0 
89 1 89 0.139835 0.539952 0 0 -0.404005 -0.135497 -0.173085 -0.0433884 0 0 -0.833332 0 0 
90 1 90 0.13983 0.579964 0 0 -0.415804 -0.114295 -0.170062 -0.0351366 0 0 -0.694947 0 0 
91 1 91 0.139827 0.619978 0 0 -0.433254 -0.113387 -0.175379 -0.0306013 0 0 -0.57666 0 0 
92 1 92 0.139824 0.659994 0 0 -0.457007 -0.113955 -0.183194 -0.014256 0 0 -0.0701861 0 0 
93 1 93 0.139818 0.700012 0 0 -0.478534 -0.103224 -0.186667 -0.0144996 0 0 0.432492 0 0 
94 1 94 0.139806 0.740032 0 0 -0.502016 -0.124918 -0.201187 0.00509345 0 0 0.333342 0 0 
95 1 95 0.139794 0.780052 0 0 -0.50151 -0.0964205 -0.191868 0.00793695 0 0 0.384197 0 0 
96 1 96 0.139776 0.820075 0 0 -0.521531 -0.100896 -0.199737 0.0135952 0 0 0.839649 0 0 
97 1 97 0.139756 0.860102 0 0 -0.53777 -0.0620541 -0.192472 0.023945 0 0 0.727431 0 0 
98 1 98 0.139727 0.900136 0 0 -0.559562 -0.0438279 -0.193612 0.00718626 0 0 1.4522 0 0 
99 1 99 0.139692 0.940172 0 0 -0.550734 -0.0122447 -0.180639 0.0100475 0 0 1.56021 0 0 
100 1 100 0.139654 0.980214 0 0 -0.543412 0.00158462 -0.173842 0.000850114 0 0 2.12203 0 0 
101 1 101 0.179988 0.0199903 0 0 -0.0885571 -0.164042 -0.0809737 -0.0465805 0 0 -0.194203 0 0 
102 1 102 0.179963 0.0599717 0 0 -0.106104 -0.153535 -0.0832355 -0.0641316 0 0 -0.470709 0 0 
103 1 103 0.179937 0.0999572 0 0 -0.134619 -0.148359 -0.090731 -0.0646558 0 0 -1.26284 0 0 
104 1 104 0.179912 0.139945 0 0 -0.167399 -0.141876 -0.0991651 -0.0652034 0 0 -1.56732 0 0 
105 1 105 0.179891 0.179937 0 0 -0.19954 -0.137074 -0.107936 -0.0560335 0 0 -1.86742 0 0 
106 1 106 0.179874 0.219931 0 0 -0.223258 -0.128295 -0.112726 -0.0561506 0 0 -1.78457 0 0 
107 1 107 0.179859 0.259929 0 0 -0.245629 -0.127684 -0.119713 -0.0530767 0 0 -1.9675 0 0 
108 1 108 0.179846 0.299926 0 0 -0.271557 -0.141253 -0.132401 -0.0585388 0 0 -2.06491 0 0 
109 1 109 0.179832 0.339925 0 0 -0.290034 -0.141951 -0.138562 -0.0569132 0 0 -2.50207 0 0 
110 1 110 0.179818 0.379925 0 0 -0.314381 -0.151177 -0.149339 -0.0587409 0 0 -2.52448 0 0 
111 1 111 0.179805 0.419926 0 0 -0.330857 -0.1441 -0.152351 -0.0528743 0 0 -2.85298 0 0 
112 1 112 0.179791 0.459929 0 0 -0.350672 -0.141999 -0.158041 -0.0561709 0 0 -3.15206 0 0 
113 1 113 0.179775 0.499935 0 0 -0.353441 -0.114385 -0.150063 -0.0504035 0 0 -3.39121 0 0 
114 1 114 0.179759 0.539945 0 0 -0.374891 -0.107384 -0.154701 -0.0544962 0 0 -2.98775 0 0 
115 1 115 0.179739 0.579958 0 0 -0.403355 -0.0967164 -0.160418 -0.0452714 0 0 -2.33455 0 0 
116 1 116 0.179719 0.619974 0 0 -0.425402 -0.0871235 -0.164421 -0.0374425 0 0 -1.91695 0 0 
117 1 117 0.179703 0.659993 0 0 -0.453226 -0.0919076 -0.174896 -0.023957 0 0 -1.9852 0 0 
118 1 118 0.179693 0.700014 0 0 -0.458783 -0.0680103 -0.169008 -0.015969 0 0 -2.42795 0 0 
119 1 119 0.179688 0.740039 0 0 -0.474102 -0.0690645 -0.174267 0.00145907 0 0 -2.65797 0 0 
120 1 120 0.179684 0.780065 0 0 -0.487111 -0.0516205 -0.172844 0.00599668 0 0 -2.26858 0 0 
121 1 121 0.179674 0.820096 0 0 -0.491343 -0.0272079 -0.166356 0.0104246 0 0 -1.14058 0 0 
122 1 122 0.179657 0.860132 0 0 -0.498207 -0.00659401 -0.161935 0.0118196 0 0 -0.531875 0 0 
123 1 123 0.179632 0.90017 0 0 -0.505488 0.00943983 -0.159121 0.00171722 0 0 0.619314 0 0 
124 1 124 0.179599 0.940211 0 0 -0.507358 0.0212345 -0.155954 0.00247945 0 0 0.924474 0 0 
125 1 125 0.179565 0.980251 0 0 -0.506967 -0.00268648 -0.163511 0.00187066 0 0 1.36215 0 0 
126 1 126 0.219989 0.0199893 0 0 -0.104493 -0.18285 -0.0921223 -0.05499 0 0 -0.207099 0 0 
127 1 127 0.219962 0.0599692 0 0 -0.121687 -0.169246 -0.0932726 -0.0689794 0 0 -0.618626 0 0 
128 1 128 0.21993 0.0999524 0 0 -0.133796 -0.164455 -0.0956264 -0.0762794 0 0 -1.51161 0 0 
129 1 129 0.219899 0.139937 0 0 -0.151245 -0.154062 -0.0978905 -0.0783356 0 0 -1.89363 0 0 
130 1 130 0.219873 0.179926 0 0 -0.174379 -0.13879 -0.100411 -0.0723152 0 0 -2.06545 0 0 
131 1 131 0.219852 0.219919 0 0 -0.20513 -0.130061 -0.107473 -0.0720906 0 0 -2.13889 0 0 
132 1 132 0.219832 0.259914 0 0 -0.238545 -0.136466 -0.120254 -0.0686513 0 0 -2.3907 0 0 
133 1 133 0.219816 0.299911 0 0 -0.264172 -0.136708 -0.128567 -0.0706961 0 0 -2.24658 0 0 
134 1 134 0.219799 0.33991 0 0 -0.286894 -0.143619 -0.138089 -0.0663819 0 0 -2.60928 0 0 
135 1 135 0.219783 0.379909 0 0 -0.306023 -0.144281 -0.144444 -0.067488 0 0 -2.70749 0 0 
136 1 136 0.219769 0.419911 0 0 -0.320343 -0.132274 -0.145182 -0.058948 0 0 -3.04506 0 0 
137 1 137 0.219756 0.459914 0 0 -0.348609 -0.131207 -0.153919 -0.0633 0 0 -2.83286 0 0 
138 1 138 0.219741 0.499922 0 0 -0.377868 -0.112811 -0.15741 -0.0521774 0 0 -2.5627 0 0 
139 1 139 0.219727 0.539934 0 0 -0.40199 -0.101967 -0.161672 -0.0575519 0 0 -1.9753 0 0 
140 1 140 0.219713 0.57995 0 0 -0.422067 -0.0915528 -0.164775 -0.045865 0 0 -1.80654 0 0 
141 1 141 0.219702 0.61997 0 0 -0.438119 -0.0740156 -0.164299 -0.0367343 0 0 -1.41037 0 0 
142 1 142 0.219691 0.659993 0 0 -0.474817 -0.0774197 -0.17718 -0.0298562 0 0 -0.237967 0 0 
143 1 143 0.219677 0.700019 0 0 -0.504237 -0.0670722 -0.18331 -0.0148289 0 0 0.198481 0 0 
144 1 144 0.21966 0.740049 0 0 -0.520994 -0.0552048 -0.184881 -0.00353898 0 0 0.731761 0 0 
145 1 145 0.219642 0.780081 0 0 -0.528538 -0.0279402 -0.178542 0.000139811 0 0 0.922256 0 0 
146 1 146 0.219619 0.820119 0 0 -0.529284 -0.00744111 -0.172192 0.00441982 0 0 1.20884 0 0 
147 1 147 0.219593 0.860159 0 0 -0.519022 0.023267 -0.15903 0.000139379 0 0 1.5552 0 0 
148 1 148 0.219559 0.900203 0 0 -0.514589 0.0232133 -0.157619 -0.00496308 0 0 2.06283 0 0 
149 1 149 0.219524 0.940245 0 0 -0.490554 0.0292821 -0.147972 -0.00457371 0 0 2.03153 0 0 
150 1 150 0.21949 0.980285 0 0 -0.483955 0.00312227 -0.154254 -0.00301846 0 0 2.01389 0 0 
151 1 151 0.259983 0.0199888 0 0 -0.102855 -0.19067 -0.0941095 -0.066195 0 0 -0.573662 0 0 
152 1 152 0.259951 0.0599667 0 0 -0.118844 -0.183354 -0.0968862 -0.0745101 0 0 -1.28253 0 0 
153 1 153 0.259919 0.0999477 0 0 -0.131751 -0.178209 -0.0993798 -0.0827538 0 0 -1.84709 0 0 
154 1 154 0.259886 0.139929 0 0 -0.151627 -0.176761 -0.105294 -0.0865792 0 0 -2.02835 0 0 
155 1 155 0.259855 0.179915 0 0 -0.174372 -0.156737 -0.106167 -0.0857049 0 0 -2.40216 0 0 
156 1 156 0.259827 0.219905 0 0 -0.209382 -0.151091 -0.115586 -0.0870523 0 0 -2.47494 0 0 
157 1 157 0.259803 0.259899 0 0 -0.232383 -0.139361 -0.119202 -0.0800464 0 0 -2.64961 0 0 
158 1 158 0.259782 0.299895 0 0 -0.247961 -0.130478 -0.121357 -0.0815865 0 0 -2.5986 0 0 
159 1 159 0.259762 0.339894 0 0 -0.263527 -0.128941 -0.125866 -0.0753571 0 0 -3.12706 0 0 
160 1 160 0.259743 0.379894 0 0 -0.283032 -0.126009 -0.131191 -0.0782912 0 0 -3.30025 0 0 
161 1 161 0.259722 0.419898 0 0 -0.303617 -0.112393 -0.133429 -0.0670734 0 0 -3.83189 0 0 
162 1 162 0.2597 0.459904 0 0 -0.322336 -0.101511 -0.13595 -0.0733909 0 0 -4.05504 0 0 
163 1 163 0.259675 0.499915 0 0 -0.335421 -0.0736165 -0.131198 -0.0611342 0 0 -4.34979 0 0 
164 1 164 0.259649 0.539931 0 0 -0.364082 -0.0648838 -0.137591 -0.0641616 0 0 -3.94558 0 0 
165 1 165 0.259619 0.57995 0 0 -0.403484 -0.06218 -0.149373 -0.0538791 0 0 -3.14504 0 0 
166 1 166 0.25959 0.619972 0 0 -0.440546 -0.0552016 -0.159034 -0.0391402 0 0 -2.68486 0 0 
167 1 167 0.259564 0.659997 0 0 -0.459972 -0.0480078 -0.162961 -0.0315544 0 0 -2.20631 0 0 
168 1 168 0.259546 0.700026 0 0 -0.461771 -0.0242756 -0.155914 -0.0120799 0 0 -2.5735 0 0 
169 1 169 0.259535 0.740059 0 0 -0.475331 -0.00674383 -0.154639 -0.00409567 0 0 -2.05854 0 0 
170 1 170 0.259524 0.780097 0 0 -0.478206 0.027196 -0.144661 -0.00026447 0 0 -1.52003 0 0 
171 1 171 0.259511 0.820139 0 0 -0.478577 0.0449842 -0.139062 0.00253074 0 0 -0.767949 0 0 
172 1 172 0.259492 0.860185 0 0 -0.474054 0.068322 -0.13012 -0.00554539 0 0 -0.0950843 0 0 
173 1 173 0.259466 0.900231 0 0 -0.464567 0.0622349 -0.129024 -0.00812566 0 0 0.563312 0 0 
174 1 174 0.259439 0.940275 0 0 -0.451067 0.0481716 -0.129226 -0.0055588 0 0 0.921842 0 0 
175 1 175 0.25941 0.980314 0 0 -0.448004 0.0117221 -0.139943 -0.00483676 0 0 1.01499 0 0 
176 1 176 0.299984 0.0199875 0 0 -0.115347 -0.207941 -0.103661 -0.0766951 0 0 -0.572166 0 0 
177 1 177 0.29995 0.0599637 0 0 -0.130489 -0.202131 -0.106652 -0.0766734 0 0 -1.44121 0 0 
178 1 178 0.299915 0.0999423 0 0 -0.127499 -0.189971 -0.101789 -0.0860419 0 0 -2.14439 0 0 
179 1 179 0.299877 0.139921 0 0 -0.141957 -0.191775 -0.107007 -0.093607 0 0 -2.35943 0 0 
180 1 180 0.299841 0.179904 0 0 -0.165088 -0.172648 -0.108294 -0.0974723 0 0 -2.73487 0 0 
181 1 181 0.299808 0.219891 0 0 -0.194787 -0.161375 -0.114204 -0.0935608 0 0 -2.62993 0 0 
182 1 182 0.299779 0.259882 0 0 -0.21922 -0.141641 -0.115709 -0.0861305 0 0 -2.72945 0 0 
183 1 183 0.299754 0.299878 0 0 -0.25342 -0.13448 -0.124391 -0.0870791 0 0 -2.66931 0 0 
184 1 184 0.299731 0.339877 0 0 -0.281839 -0.132721 -0.132953 -0.0771013 0 0 -3.01117 0 0 
185 1 185 0.299709 0.379878 0 0 -0.296086 -0.115649 -0.132048 -0.0804916 0 0 -2.98357 0 0 
186 1 186 0.299687 0.419884 0 0 -0.315675 -0.104404 -0.134733 -0.0678983 0 0 -3.43604 0 0 
187 1 187 0.299664 0.459893 0 0 -0.34105 -0.0861322 -0.137021 -0.0736089 0 0 -3.19042 0 0 
188 1 188 0.299639 0.499907 0 0 -0.381225 -0.0770886 -0.147023 -0.0644423 0 0 -2.82767 0 0 
189 1 189 0.299614 0.539925 0 0 -0.413448 -0.0670658 -0.154147 -0.0643931 0 0 -2.5434 0 0 
190 1 190 0.29959 0.579948 0 0 -0.429183 -0.0572634 -0.156047 -0.0565435 0 0 -2.19304 0 0 
191 1 191 0.299569 0.619973 0 0 -0.446991 -0.0407178 -0.156451 -0.0474176 0 0 -1.70298 0 0 
192 1 192 0.299548 0.660003 0 0 -0.485572 -0.0435955 -0.169768 -0.0410234 0 0 -0.426961 0 0 
193 1 193 0.299526 0.700035 0 0 -0.514726 -0.0311481 -0.175136 -0.0241635 0 0 0.315015 0 0 
194 1 194 0.299502 0.740072 0 0 -0.531749 -0.00720908 -0.172914 -0.0196273 0 0 1.4484 0 0 
195 1 195 0.299478 0.780114 0 0 -0.532189 0.0206878 -0.164091 -0.0076658 0 0 1.33795 0 0 
196 1 196 0.299453 0.82016 0 0 -0.520369 0.0496189 -0.150996 -0.0072911 0 0 1.50825 0 0 
197 1 197 0.299425 0.860207 0 0 -0.506955 0.0662449 -0.141355 -0.0119004 0 0 1.7259 0 0 
198 1 198 0.299396 0.900256 0 0 -0.487479 0.0608037 -0.136843 -0.00565519 0 0 1.74038 0 0 
199 1 199 0.299369 0.9403 0 0 -0.456758 0.048121 -0.131069 -0.00738693 0 0 1.77123 0 0 
200 1 200 0.299342 0.980339 0 0 -0.438988 0.00912718 -0.137879 -0.00433431 0 0 1.41976 0 0 
201 1 201 0.339979 0.0199868 0 0 -0.109395 -0.215091 -0.104045 -0.0844244 0 0 -0.842422 0 0 
202 1 202 0.33994 0.0599618 0 0 -0.118919 -0.204088 -0.103568 -0.0766222 0 0 -2.00382 0 0 
203 1 203 0.339906 0.0999385 0 0 -0.133297 -0.207474 -0.109268 -0.0845171 0 0 -2.45939 0 0 
204 1 204 0.339868 0.139915 0 0 -0.146888 -0.207632 -0.11368 -0.0947486 0 0 -2.51087 0 0 
205 1 205 0.339827 0.179896 0 0 -0.164817 -0.191569 -0.114281 -0.103889 0 0 -2.91462 0 0 
206 1 206 0.339787 0.21988 0 0 -0.198624 -0.174225 -0.119563 -0.0996151 0 0 -2.79267 0 0 
207 1 207 0.339752 0.25987 0 0 -0.237082 -0.162885 -0.128266 -0.0917463 0 0 -2.93252 0 0 
208 1 208 0.339721 0.299864 0 0 -0.25979 -0.138333 -0.127673 -0.091197 0 0 -2.75578 0 0 
209 1 209 0.339693 0.339864 0 0 -0.280092 -0.124586 -0.129779 -0.0779061 0 0 -3.10075 0 0 
210 1 210 0.339666 0.379867 0 0 -0.295391 -0.102943 -0.127742 -0.0838956 0 0 -3.07958 0 0 
211 1 211 0.339637 0.419875 0 0 -0.320048 -0.0886006 -0.131058 -0.0760313 0 0 -3.56579 0 0 
212 1 212 0.339605 0.459888 0 0 -0.335581 -0.063434 -0.12797 -0.0827445 0 0 -3.93055 0 0 
213 1 213 0.339569 0.499906 0 0 -0.347706 -0.0465852 -0.126458 -0.07808 0 0 -4.20074 0 0 
214 1 214 0.339532 0.539927 0 0 -0.36465 -0.0242206 -0.124713 -0.0774585 0 0 -3.97626 0 0 
215 1 215 0.339493 0.579952 0 0 -0.406908 -0.0317745 -0.140705 -0.0688954 0 0 -3.12439 0 0 
216 1 216 0.339454 0.619979 0 0 -0.438683 -0.0248106 -0.148674 -0.0584468 0 0 -2.60462 0 0 
217 1 217 0.339419 0.66001 0 0 -0.446827 -0.00715325 -0.145618 -0.0461154 0 0 -2.18836 0 0 
218 1 218 0.339393 0.700044 0 0 -0.449627 0.0123413 -0.140257 -0.0277292 0 0 -2.30406 0 0 
219 1 219 0.339374 0.740083 0 0 -0.454581 0.0475014 -0.130556 -0.0263291 0 0 -1.38715 0 0 
220 1 220 0.339357 0.780127 0 0 -0.464356 0.0667626 -0.127509 -0.0130702 0 0 -1.30255 0 0 
221 1 221 0.339342 0.820175 0 0 -0.465977 0.0900694 -0.120544 -0.0156187 0 0 -0.709668 0 0 
222 1 222 0.339324 0.860225 0 0 -0.456058 0.102642 -0.113332 -0.0155862 0 0 -0.375401 0 0 
223 1 223 0.339305 0.900275 0 0 -0.438724 0.0891294 -0.112102 -0.00743396 0 0 -0.059676 0 0 
224 1 224 0.339287 0.94032 0 0 -0.422522 0.0642416 -0.114903 -0.0056752 0 0 0.351371 0 0 
225 1 225 0.339269 0.980359 0 0 -0.405357 0.0203277 -0.123483 -0.0035548 0 0 0.215517 0 0 
226 1 226 0.37998 0.0199868 0 0 -0.113902 -0.218571 -0.106607 -0.0885818 0 0 -0.689915 0 0 
227 1 227 0.379942 0.0599609 0 0 -0.120515 -0.210189 -0.106036 -0.07498 0 0 -1.84503 0 0 
228 1 228 0.379904 0.0999364 0 0 -0.123109 -0.212505 -0.107613 -0.0823441 0 0 -2.53956 0 0 
229 1 229 0.379862 0.139912 0 0 -0.139522 -0.210856 -0.112351 -0.0951152 0 0 -2.66075 0 0 
230 1 230 0.379816 0.179891 0 0 -0.173427 -0.207492 -0.122157 -0.105687 0 0 -2.98316 0 0 
231 1 231 0.37977 0.219872 0 0 -0.208198 -0.19165 -0.128235 -0.102962 0 0 -2.8691 0 0 
232 1 232 0.379728 0.259861 0 0 -0.245315 -0.173609 -0.134358 -0.0930992 0 0 -3.06278 0 0 
233 1 233 0.379691 0.299854 0 0 -0.278706 -0.154407 -0.138913 -0.0890055 0 0 -2.72773 0 0 
234 1 234 0.379658 0.339854 0 0 -0.307701 -0.129738 -0.140304 -0.0775618 0 0 -2.78816 0 0 
235 1 235 0.379628 0.379858 0 0 -0.333316 -0.115584 -0.143981 -0.080516 0 0 -2.72695 0 0 
236 1 236 0.379596 0.419867 0 0 -0.345068 -0.0882673 -0.138984 -0.0771965 0 0 -2.85675 0 0 
237 1 237 0.379564 0.459882 0 0 -0.36958 -0.065292 -0.139478 -0.0859543 0 0 -2.54171 0 0 
238 1 238 0.379529 0.499901 0 0 -0.410648 -0.0674074 -0.153349 -0.0817564 0 0 -2.24546 0 0 
239 1 239 0.379494 0.539923 0 0 -0.425345 -0.038871 -0.148902 -0.0830428 0 0 -2.06483 0 0 
240 1 240 0.379461 0.579951 0 0 -0.437137 -0.0355671 -0.151629 -0.0780807 0 0 -1.92629 0 0 
241 1 241 0.37943 0.61998 0 0 -0.44781 -0.0190318 -0.149752 -0.0727122 0 0 -1.58716 0 0 
242 1 242 0.379401 0.660014 0 0 -0.480449 -0.0104848 -0.157488 -0.0646999 0 0 -0.307158 0 0 
243 1 243 0.379371 0.700051 0 0 -0.517182 -0.0053644 -0.167644 -0.0503333 0 0 0.678286 0 0 
244 1 244 0.37934 0.740092 0 0 -0.529113 0.0223192 -0.16258 -0.0462952 0 0 1.89638 0 0 
245 1 245 0.37931 0.780138 0 0 -0.52796 0.0463831 -0.154481 -0.0283632 0 0 1.55102 0 0 
246 1 246 0.379283 0.820187 0 0 -0.519437 0.0760245 -0.142222 -0.0309692 0 0 1.64882 0 0 
247 1 247 0.379257 0.860239 0 0 -0.504836 0.083909 -0.135011 -0.0197432 0 0 1.14813 0 0 
248 1 248 0.379236 0.900289 0 0 -0.479691 0.072793 -0.130504 -0.0110789 0 0 1.01736 0 0 
249 1 249 0.37922 0.940334 0 0 -0.44457 0.0528168 -0.125652 -0.00710039 0 0 0.90494 0 0 
250 1 250 0.379206 0.980372 0 0 -0.406883 0.0124652 -0.126498 -0.00126446 0 0 0.464567 0 0 
251 1 251 0.419976 0.0199873 0 0 -0.101704 -0.209028 -0.099629 -0.0936786 0 0 -0.842325 0 0 
252 1 252 0.419934 0.0599615 0 0 -0.115162 -0.210532 -0.104427 -0.077814 0 0 -1.90272 0 0 
253 1 253 0.419897 0.0999366 0 0 -0.138596 -0.221554 -0.115488 -0.082598 0 0 -2.36762 0 0 
254 1 254 0.419854 0.139912 0 0 -0.154868 -0.216398 -0.119057 -0.0978545 0 0 -2.54771 0 0 
255 1 255 0.419803 0.17989 0 0 -0.1799 -0.215842 -0.126918 -0.109967 0 0 -3.0315 0 0 
256 1 256 0.41975 0.219871 0 0 -0.214552 -0.205202 -0.134628 -0.109657 0 0 -2.95718 0 0 
257 1 257 0.4197 0.259858 0 0 -0.255068 -0.185443 -0.141292 -0.100484 0 0 -3.02958 0 0 
258 1 258 0.419655 0.29985 0 0 -0.292415 -0.168506 -0.147847 -0.0939865 0 0 -2.87893 0 0 
259 1 259 0.419615 0.339849 0 0 -0.315706 -0.137874 -0.14549 -0.0848951 0 0 -2.95502 0 0 
260 1 260 0.419578 0.379854 0 0 -0.337651 -0.110345 -0.143694 -0.087458 0 0 -2.84589 0 0 
261 1 261 0.41954 0.419864 0 0 -0.360729 -0.094341 -0.145966 -0.0848502 0 0 -3.16098 0 0 
262 1 262 0.419499 0.45988 0 0 -0.354407 -0.0485429 -0.129228 -0.095284 0 0 -3.24127 0 0 
263 1 263 0.419454 0.499901 0 0 -0.359947 -0.0397326 -0.12818 -0.0942493 0 0 -3.65754 0 0 
264 1 264 0.419409 0.539924 0 0 -0.368632 -0.00789543 -0.120745 -0.0977272 0 0 -3.54215 0 0 
265 1 265 0.419361 0.579952 0 0 -0.408907 -0.0151062 -0.13599 -0.0928614 0 0 -2.72189 0 0 
266 1 266 0.419314 0.619982 0 0 -0.432 -0.0026797 -0.139422 -0.0843576 0 0 -2.35643 0 0 
267 1 267 0.419271 0.660016 0 0 -0.430401 0.0216233 -0.131104 -0.0730489 0 0 -1.84938 0 0 
268 1 268 0.419237 0.700053 0 0 -0.427823 0.0456901 -0.122548 -0.0585107 0 0 -1.83354 0 0 
269 1 269 0.419211 0.740096 0 0 -0.427665 0.0796714 -0.111587 -0.0547433 0 0 -1.08981 0 0 
270 1 270 0.41919 0.780143 0 0 -0.443045 0.0920408 -0.112556 -0.0384441 0 0 -1.10686 0 0 
271 1 271 0.419172 0.820194 0 0 -0.450569 0.112994 -0.108246 -0.0428695 0 0 -0.569549 0 0 
272 1 272 0.419156 0.860245 0 0 -0.444148 0.109017 -0.10747 -0.0241914 0 0 -0.952605 0 0 
273 1 273 0.419146 0.900295 0 0 -0.428143 0.09418 -0.107094 -0.0194979 0 0 -0.594466 0 0 
274 1 274 0.419139 0.94034 0 0 -0.411371 0.0634277 -0.111591 -0.00854836 0 0 -0.624361 0 0 
275 1 275 0.419137 0.980377 0 0 -0.382551 0.0208887 -0.115984 -0.00146789 0 0 -0.797774 0 0 
276 1 276 0.459978 0.0199875 0 0 -0.104472 -0.207719 -0.100099 -0.0969 0 0 -0.58093 0 0 
277 1 277 0.459937 0.0599617 0 0 -0.115961 -0.209981 -0.104506 -0.082342 0 0 -1.3556 0 0 
278 1 278 0.459894 0.0999374 0 0 -0.132623 -0.213739 -0.111063 -0.0883464 0 0 -2.21827 0 0 
279 1 279 0.459846 0.139914 0 0 -0.160483 -0.214026 -0.1201 -0.105566 0 0 -2.57182 0 0 
280 1 280 0.45979 0.179892 0 0 -0.199194 -0.22521 -0.136121 -0.118004 0 0 -2.8238 0 0 
281 1 281 0.459732 0.219873 0 0 -0.231611 -0.218116 -0.144252 -0.119748 0 0 -2.95981 0 0 
282 1 282 0.459674 0.259858 0 0 -0.266179 -0.20035 -0.149648 -0.111123 0 0 -3.26444 0 0 
283 1 283 0.459623 0.299849 0 0 -0.302825 -0.178616 -0.154437 -0.1019 0 0 -3.12167 0 0 
284 1 284 0.459577 0.339847 0 0 -0.336944 -0.155982 -0.158126 -0.0895381 0 0 -2.9598 0 0 
285 1 285 0.459535 0.379851 0 0 -0.353274 -0.116463 -0.150676 -0.0891289 0 0 -2.58631 0 0 
286 1 286 0.459494 0.419861 0 0 -0.374239 -0.0970261 -0.151166 -0.0865584 0 0 -2.49187 0 0 
287 1 287 0.459454 0.459877 0 0 -0.393709 -0.0661487 -0.147505 -0.0925265 0 0 -2.02233 0 0 
288 1 288 0.459412 0.499897 0 0 -0.429117 -0.0687408 -0.159713 -0.0939403 0 0 -1.71617 0 0 
289 1 289 0.459369 0.539921 0 0 -0.438993 -0.0413607 -0.154086 -0.0956747 0 0 -1.58187 0 0 
290 1 290 0.459328 0.579949 0 0 -0.437002 -0.0268008 -0.148768 -0.0928524 0 0 -1.47499 0 0 
291 1 291 0.459291 0.61998 0 0 -0.439803 -0.00278273 -0.141958 -0.0918819 0 0 -1.23938 0 0 
292 1 292 0.459254 0.660016 0 0 -0.47475 0.0037776 -0.151076 -0.0880864 0 0 0.0578162 0 0 
293 1 293 0.459216 0.700055 0 0 -0.513332 0.00874247 -0.161874 -0.0777432 0 0 1.05567 0 0 
294 1 294 0.459178 0.740098 0 0 -0.529282 0.0314033 -0.159715 -0.0735055 0 0 2.02066 0 0 
295 1 295 0.459143 0.780145 0 0 -0.529565 0.0520358 -0.153183 -0.0584988 0 0 1.65839 0 0 
296 1 296 0.459113 0.820195 0 0 -0.515026 0.0747587 -0.141214 -0.0597937 0 0 1.57968 0 0 
297 1 297 0.459091 0.860245 0 0 -0.497614 0.0711126 -0.136801 -0.034457 0 0 0.441924 0 0 
298 1 298 0.459079 0.900293 0 0 -0.47463 0.0624638 -0.132199 -0.0331787 0 0 0.436576 0 0 
299 1 299 0.459073 0.940336 0 0 -0.445524 0.0408128 -0.129813 -0.0153164 0 0 -0.222948 0 0 
300 1 300 0.459077 0.980373 0 0 -0.410321 0.00827433 -0.128947 -0.00552763 0 0 -0.414316 0 0 
301 1 301 0.499975 0.0199877 0 0 -0.0961916 -0.202952 -0.0959128 -0.0998571 0 0 -0.580503 0 0 
302 1 302 0.499929 0.0599622 0 0 -0.11685 -0.210002 -0.1048 -0.0908987 0 0 -1.1522 0 0 
303 1 303 0.499885 0.0999384 0 0 -0.15337 -0.216747 -0.11869 -0.0994725 0 0 -1.87403 0 0 
304 1 304 0.499834 0.139916 0 0 -0.179991 -0.217822 -0.127582 -0.116238 0 0 -2.40996 0 0 
305 1 305 0.499773 0.179895 0 0 -0.205741 -0.224146 -0.137882 -0.129371 0 0 -2.82017 0 0 
306 1 306 0.499708 0.219876 0 0 -0.239022 -0.221391 -0.147685 -0.133637 0 0 -3.00873 0 0 
307 1 307 0.499644 0.259861 0 0 -0.277895 -0.212584 -0.157339 -0.125093 0 0 -3.31727 0 0 
308 1 308 0.499585 0.299851 0 0 -0.303423 -0.184914 -0.156649 -0.11415 0 0 -3.2254 0 0 
309 1 309 0.499532 0.339848 0 0 -0.325207 -0.153565 -0.153577 -0.102689 0 0 -3.1044 0 0 
310 1 310 0.499484 0.379852 0 0 -0.344093 -0.115204 -0.14732 -0.0986118 0 0 -2.87403 0 0 
311 1 311 0.499436 0.419863 0 0 -0.363546 -0.0900566 -0.145492 -0.0978379 0 0 -2.83781 0 0 
312 1 312 0.499387 0.459879 0 0 -0.361811 -0.0498863 -0.132041 -0.101745 0 0 -2.86686 0 0 
313 1 313 0.499335 0.4999 0 0 -0.356557 -0.0322442 -0.124692 -0.101555 0 0 -3.16439 0 0 
314 1 314 0.499283 0.539924 0 0 -0.356877 -0.00163271 -0.114963 -0.105835 0 0 -2.91954 0 0 
315 1 315 0.499229 0.579952 0 0 -0.401808 -0.0125489 -0.13289 -0.102017 0 0 -2.34735 0 0 
316 1 316 0.499174 0.619982 0 0 -0.426875 0.00345182 -0.135803 -0.097139 0 0 -1.98619 0 0 
317 1 317 0.499124 0.660016 0 0 -0.424757 0.0238521 -0.128573 -0.0894288 0 0 -1.42777 0 0 
318 1 318 0.499083 0.700054 0 0 -0.408338 0.0555861 -0.113116 -0.0777294 0 0 -1.53254 0 0 
319 1 319 0.499051 0.740096 0 0 -0.405674 0.0784531 -0.10492 -0.0775185 0 0 -0.975215 0 0 
320 1 320 0.499024 0.780141 0 0 -0.421648 0.0902391 -0.106268 -0.0671298 0 0 -1.01725 0 0 
321 1 321 0.499004 0.820188 0 0 -0.430744 0.0946726 -0.107761 -0.0687623 0 0 -0.620669 0 0 
322 1 322 0.498993 0.860235 0 0 -0.428735 0.0843635 -0.110431 -0.042767 0 0 -1.29282 0 0 
323 1 323 0.49899 0.90028 0 0 -0.423647 0.0710147 -0.113082 -0.0441701 0 0 -0.931507 0 0 
324 1 324 0.498994 0.940322 0 0 -0.414922 0.0477522 -0.117755 -0.0197378 0 0 -1.668 0 0 
325 1 325 0.499006 0.980358 0 0 -0.401175 0.0179385 -0.122905 -0.0108869 0 0 -1.57158 0 0 
326 1 326 0.539977 0.0199872 0 0 -0.11004 -0.213241 -0.103659 -0.104152 0 0 -0.265687 0 0 
327 1 327 0.53993 0.0599614 0 0 -0.13673 -0.218548 -0.113926 -0.103144 0 0 -0.618752 0 0 
328 1 328 0.539878 0.099938 0 0 -0.164812 -0.217408 -0.122577 -0.111468 0 0 -1.58352 0 0 
329 1 329 0.539821 0.139917 0 0 -0.197837 -0.217408 -0.133179 -0.127456 0 0 -2.25179 0 0 