ITEM: TIMESTEP
0
ITEM: NUMBER OF ATOMS
6875
ITEM: BOX BOUNDS sm sm sm
0 4
0 2
0 0
ITEM: ATOMS id type tag x y z damage s11 s22 s33 s12 s13 s23 vx T ienergy 
1 1 1 0.0199932 0.0199935 0 0 -0.151639 -0.149273 -0.096487 -0.0539692 0 0 -0.226726 0 0 
2 1 2 0.0199839 0.0599846 0 0 -0.275712 -0.162729 -0.140636 -0.0762002 0 0 -0.165718 0 0 
3 1 3 0.0199791 0.0999812 0 0 -0.341927 -0.172799 -0.165138 -0.0872032 0 0 -0.0132076 0 0 
4 1 4 0.0199752 0.13998 0 0 -0.397506 -0.19005 -0.188539 -0.090943 0 0 -0.104405 0 0 
5 1 5 0.0199723 0.17998 0 0 -0.44064 -0.203341 -0.206675 -0.0873508 0 0 -0.0594777 0 0 
6 1 6 0.0199702 0.219981 0 0 -0.471989 -0.215084 -0.22053 -0.0819541 0 0 -0.0448928 0 0 
7 1 7 0.0199687 0.259983 0 0 -0.495679 -0.224083 -0.231041 -0.0746618 0 0 -0.0173371 0 0 
8 1 8 0.0199676 0.299985 0 0 -0.51324 -0.231556 -0.239093 -0.0667237 0 0 0.0129651 0 0 
9 1 9 0.0199668 0.339986 0 0 -0.52613 -0.237113 -0.245027 -0.0584569 0 0 0.0458414 0 0 
10 1 10 0.0199662 0.379988 0 0 -0.535477 -0.241167 -0.249337 -0.0500315 0 0 0.0742238 0 0 
11 1 11 0.0199657 0.41999 0 0 -0.54251 -0.244641 -0.252717 -0.0416268 0 0 0.0987484 0 0 
12 1 12 0.0199654 0.459992 0 0 -0.547146 -0.246273 -0.254734 -0.0331422 0 0 0.113862 0 0 
13 1 13 0.0199652 0.499994 0 0 -0.551269 -0.249016 -0.256943 -0.0248233 0 0 0.122879 0 0 
14 1 14 0.019965 0.539996 0 0 -0.553286 -0.24868 -0.257484 -0.0163706 0 0 0.11896 0 0 
15 1 15 0.0199649 0.579998 0 0 -0.556945 -0.252286 -0.259821 -0.00821379 0 0 0.109872 0 0 
16 1 16 0.0199647 0.62 0 0 -0.558021 -0.249744 -0.25935 0.000254722 0 0 0.0849264 0 0 
17 1 17 0.0199644 0.660002 0 0 -0.564232 -0.256489 -0.263518 0.00842612 0 0 0.053041 0 0 
18 1 18 0.019964 0.700004 0 0 -0.566308 -0.250306 -0.262197 0.0173531 0 0 0.00700843 0 0 
19 1 19 0.0199635 0.740007 0 0 -0.579659 -0.2636 -0.270771 0.0267228 0 0 -0.0601361 0 0 
20 1 20 0.0199625 0.780009 0 0 -0.586038 -0.250099 -0.268479 0.0376988 0 0 -0.126289 0 0 
21 1 21 0.0199614 0.820013 0 0 -0.609791 -0.272952 -0.283478 0.0538881 0 0 -0.259082 0 0 
22 1 22 0.0199589 0.860018 0 0 -0.630898 -0.245613 -0.281472 0.0681082 0 0 -0.159227 0 0 
23 1 23 0.0199567 0.900026 0 0 -0.668161 -0.285594 -0.306338 0.110672 0 0 -0.93968 0 0 
24 1 24 0.0199534 0.940037 0 0 -0.689709 -0.19519 -0.284171 0.135366 0 0 0.491766 0 0 
25 1 25 0.0199353 0.980064 0 0 -0.920862 -0.262624 -0.380351 0.22272 0 0 -1.65696 0 0 
26 1 26 0.0599833 0.0199859 0 0 -0.161204 -0.250035 -0.131901 -0.0760743 0 0 -0.128192 0 0 
27 1 27 0.0599569 0.0599642 0 0 -0.233148 -0.205071 -0.140565 -0.0643585 0 0 -0.0836278 0 0 
28 1 28 0.0599401 0.099953 0 0 -0.314591 -0.192473 -0.162677 -0.0696489 0 0 -0.0858935 0 0 
29 1 29 0.0599275 0.139948 0 0 -0.37387 -0.189135 -0.180649 -0.0730569 0 0 -0.197606 0 0 
30 1 30 0.0599183 0.179948 0 0 -0.415585 -0.189229 -0.194085 -0.0694334 0 0 -0.173365 0 0 
31 1 31 0.0599117 0.21995 0 0 -0.448838 -0.193986 -0.206303 -0.065635 0 0 -0.176921 0 0 
32 1 32 0.0599069 0.259954 0 0 -0.47228 -0.197951 -0.215114 -0.05966 0 0 -0.116955 0 0 
33 1 33 0.0599034 0.299958 0 0 -0.489745 -0.202749 -0.222273 -0.0535274 0 0 -0.0520081 0 0 
34 1 34 0.0599009 0.339963 0 0 -0.5026 -0.206785 -0.227704 -0.0469723 0 0 0.0284968 0 0 
35 1 35 0.0598991 0.379968 0 0 -0.511825 -0.209574 -0.231568 -0.0403736 0 0 0.101692 0 0 
36 1 36 0.0598977 0.419973 0 0 -0.519513 -0.213403 -0.235272 -0.0338 0 0 0.169182 0 0 
37 1 37 0.0598968 0.459978 0 0 -0.524125 -0.213658 -0.236837 -0.0271699 0 0 0.217079 0 0 
38 1 38 0.059896 0.499984 0 0 -0.530084 -0.218587 -0.240339 -0.0207137 0 0 0.24972 0 0 
39 1 39 0.0598954 0.539989 0 0 -0.531817 -0.215434 -0.239883 -0.0141387 0 0 0.25232 0 0 
40 1 40 0.0598949 0.579995 0 0 -0.539018 -0.223836 -0.244901 -0.00776051 0 0 0.232052 0 0 
41 1 41 0.0598942 0.62 0 0 -0.538684 -0.214812 -0.241891 -0.00125943 0 0 0.174687 0 0 
42 1 42 0.0598933 0.660006 0 0 -0.551152 -0.230325 -0.250892 0.00547251 0 0 0.0748042 0 0 
43 1 43 0.0598919 0.700012 0 0 -0.549624 -0.209956 -0.243848 0.0118622 0 0 -0.0468552 0 0 
44 1 44 0.0598898 0.74002 0 0 -0.573716 -0.237327 -0.260404 0.0208247 0 0 -0.280816 0 0 
45 1 45 0.0598864 0.780028 0 0 -0.572411 -0.194799 -0.246302 0.0265118 0 0 -0.42014 0 0 
46 1 46 0.0598818 0.820039 0 0 -0.620781 -0.238654 -0.275976 0.0450715 0 0 -0.948888 0 0 
47 1 47 0.0598744 0.860053 0 0 -0.612748 -0.153932 -0.246131 0.0445006 0 0 -0.783167 0 0 
48 1 48 0.0598649 0.900076 0 0 -0.707262 -0.210084 -0.294615 0.0939533 0 0 -2.07046 0 0 
49 1 49 0.0598496 0.940107 0 0 -0.721362 -0.0585869 -0.250399 0.0672771 0 0 -0.917161 0 0 
50 1 50 0.0598124 0.980158 0 0 -0.737479 -0.015863 -0.24184 0.0509814 0 0 -3.60884 0 0 
51 1 51 0.099978 0.0199845 0 0 -0.151209 -0.265275 -0.133585 -0.0938099 0 0 0.244384 0 0 
52 1 52 0.0999386 0.0599577 0 0 -0.204151 -0.235153 -0.140913 -0.0783367 0 0 0.339087 0 0 
53 1 53 0.0999082 0.0999398 0 0 -0.270537 -0.208382 -0.153636 -0.0709131 0 0 0.102816 0 0 
54 1 54 0.0998856 0.139931 0 0 -0.324787 -0.185113 -0.163587 -0.0651743 0 0 -0.00446539 0 0 
55 1 55 0.0998691 0.179928 0 0 -0.368248 -0.175846 -0.174573 -0.0598891 0 0 -0.107963 0 0 
56 1 56 0.0998572 0.21993 0 0 -0.400342 -0.170591 -0.183197 -0.0547009 0 0 -0.156058 0 0 
57 1 57 0.0998488 0.259934 0 0 -0.423739 -0.16929 -0.190298 -0.0486655 0 0 -0.103563 0 0 
58 1 58 0.0998427 0.299939 0 0 -0.440992 -0.169859 -0.196026 -0.0432665 0 0 -0.0313794 0 0 
59 1 59 0.0998384 0.339946 0 0 -0.454123 -0.17202 -0.200941 -0.0376831 0 0 0.0749993 0 0 
60 1 60 0.0998352 0.379953 0 0 -0.4634 -0.172873 -0.204197 -0.0323826 0 0 0.173314 0 0 
61 1 61 0.0998329 0.41996 0 0 -0.47211 -0.176942 -0.208306 -0.0272228 0 0 0.262071 0 0 
62 1 62 0.0998311 0.459968 0 0 -0.476884 -0.175538 -0.209389 -0.0221546 0 0 0.319856 0 0 
63 1 63 0.0998297 0.499976 0 0 -0.484739 -0.182299 -0.214088 -0.0173012 0 0 0.347206 0 0 
64 1 64 0.0998285 0.539984 0 0 -0.486343 -0.176327 -0.212684 -0.0125024 0 0 0.331424 0 0 
65 1 65 0.0998273 0.579992 0 0 -0.49661 -0.188113 -0.219774 -0.00778754 0 0 0.267854 0 0 
66 1 66 0.0998258 0.62 0 0 -0.495727 -0.173852 -0.214905 -0.00344107 0 0 0.160749 0 0 
67 1 67 0.0998239 0.66001 0 0 -0.51291 -0.193812 -0.226848 0.0016886 0 0 -0.0394619 0 0 
68 1 68 0.0998209 0.700019 0 0 -0.510766 -0.164951 -0.216878 0.00483678 0 0 -0.246573 0 0 
69 1 69 0.0998166 0.740031 0 0 -0.541502 -0.194857 -0.236379 0.0123435 0 0 -0.689373 0 0 
70 1 70 0.0998098 0.780044 0 0 -0.54056 -0.142737 -0.219315 0.0120576 0 0 -0.94163 0 0 
71 1 71 0.0998 0.820063 0 0 -0.592253 -0.176007 -0.24664 0.025933 0 0 -1.80656 0 0 
72 1 72 0.0997864 0.860085 0 0 -0.59967 -0.0987951 -0.224192 0.0203111 0 0 -1.9929 0 0 
73 1 73 0.0997669 0.900118 0 0 -0.664166 -0.0982622 -0.244763 0.0361152 0 0 -3.00501 0 0 
74 1 74 0.0997393 0.940159 0 0 -0.672612 -0.0196122 -0.222184 0.0065408 0 0 -3.4525 0 0 
75 1 75 0.0997029 0.980207 0 0 -0.646116 -0.0127136 -0.211447 -0.000987007 0 0 -4.35026 0 0 
76 1 76 0.139975 0.0199845 0 0 -0.138111 -0.258713 -0.127273 -0.106956 0 0 0.492911 0 0 
77 1 77 0.139926 0.0599563 0 0 -0.17012 -0.235771 -0.130184 -0.0953124 0 0 0.909062 0 0 
78 1 78 0.139885 0.0999353 0 0 -0.215589 -0.20647 -0.135375 -0.0826098 0 0 0.684965 0 0 
79 1 79 0.139852 0.139923 0 0 -0.262345 -0.176957 -0.140912 -0.0690811 0 0 0.425417 0 0 
80 1 80 0.139828 0.179917 0 0 -0.303132 -0.15871 -0.148151 -0.0590251 0 0 0.185386 0 0 
81 1 81 0.13981 0.219917 0 0 -0.33314 -0.144458 -0.153211 -0.0507316 0 0 0.0399235 0 0 
82 1 82 0.139798 0.25992 0 0 -0.35678 -0.138213 -0.158798 -0.043307 0 0 0.00330824 0 0 
83 1 83 0.139789 0.299926 0 0 -0.373717 -0.133874 -0.162845 -0.0373834 0 0 0.0176914 0 0 
84 1 84 0.139782 0.339934 0 0 -0.38761 -0.134271 -0.167436 -0.0319372 0 0 0.0849482 0 0 
85 1 85 0.139778 0.379942 0 0 -0.397283 -0.13285 -0.170088 -0.0272579 0 0 0.152336 0 0 
86 1 86 0.139774 0.419951 0 0 -0.407865 -0.137563 -0.175002 -0.0229915 0 0 0.216963 0 0 
87 1 87 0.139771 0.45996 0 0 -0.413843 -0.134732 -0.176013 -0.0190754 0 0 0.251746 0 0 
88 1 88 0.139769 0.49997 0 0 -0.425198 -0.143982 -0.182634 -0.0154994 0 0 0.253515 0 0 
89 1 89 0.139767 0.53998 0 0 -0.428767 -0.136167 -0.18127 -0.0122383 0 0 0.209724 0 0 
90 1 90 0.139765 0.57999 0 0 -0.44409 -0.151475 -0.191113 -0.00904344 0 0 0.101365 0 0 
91 1 91 0.139762 0.62 0 0 -0.445764 -0.134244 -0.186113 -0.00679335 0 0 -0.0545613 0 0 
92 1 92 0.139758 0.660012 0 0 -0.468722 -0.156575 -0.200669 -0.0034953 0 0 -0.347556 0 0 
93 1 93 0.139753 0.700025 0 0 -0.470272 -0.124636 -0.190902 -0.00357999 0 0 -0.64218 0 0 
94 1 94 0.139746 0.74004 0 0 -0.50523 -0.15076 -0.210536 0.000938249 0 0 -1.24594 0 0 
95 1 95 0.139735 0.780058 0 0 -0.511862 -0.1012 -0.196736 -0.00410714 0 0 -1.67554 0 0 
96 1 96 0.139719 0.820082 0 0 -0.558243 -0.117927 -0.217024 0.0025341 0 0 -2.65915 0 0 
97 1 97 0.139698 0.86011 0 0 -0.577285 -0.0560521 -0.203253 -0.0101613 0 0 -3.15316 0 0 
98 1 98 0.139669 0.900148 0 0 -0.620656 -0.0506804 -0.215469 -0.00950915 0 0 -4.30213 0 0 
99 1 99 0.139637 0.94019 0 0 -0.607718 0.00211201 -0.194338 -0.0270079 0 0 -4.61799 0 0 
100 1 100 0.139604 0.980236 0 0 -0.602806 -0.0173706 -0.199022 -0.0134695 0 0 -4.73631 0 0 
101 1 101 0.179973 0.0199856 0 0 -0.112405 -0.233702 -0.110991 -0.110056 0 0 0.834288 0 0 
102 1 102 0.17992 0.0599583 0 0 -0.125046 -0.21755 -0.109865 -0.103497 0 0 1.62015 0 0 
103 1 103 0.17987 0.0999358 0 0 -0.158511 -0.194352 -0.11316 -0.0939335 0 0 1.43202 0 0 
104 1 104 0.179828 0.13992 0 0 -0.195726 -0.163663 -0.115255 -0.0771265 0 0 1.11871 0 0 
105 1 105 0.179796 0.179912 0 0 -0.232288 -0.140374 -0.119515 -0.0631832 0 0 0.728783 0 0 
106 1 106 0.179772 0.21991 0 0 -0.262226 -0.120341 -0.122695 -0.0520203 0 0 0.419562 0 0 
107 1 107 0.179755 0.259912 0 0 -0.287397 -0.110142 -0.127502 -0.0427606 0 0 0.24125 0 0 
108 1 108 0.179743 0.299918 0 0 -0.305774 -0.101715 -0.130696 -0.0359367 0 0 0.138554 0 0 
109 1 109 0.179734 0.339925 0 0 -0.322404 -0.101251 -0.135887 -0.0302559 0 0 0.112156 0 0 
110 1 110 0.179728 0.379934 0 0 -0.333922 -0.0978267 -0.138486 -0.0258374 0 0 0.0999092 0 0 
111 1 111 0.179723 0.419944 0 0 -0.347654 -0.103887 -0.144843 -0.0221198 0 0 0.0942706 0 0 
112 1 112 0.179718 0.459954 0 0 -0.35515 -0.0994203 -0.145815 -0.0189919 0 0 0.0597799 0 0 
113 1 113 0.179715 0.499965 0 0 -0.369814 -0.111164 -0.154297 -0.0163162 0 0 -0.011552 0 0 
114 1 114 0.179711 0.539976 0 0 -0.374247 -0.100727 -0.152369 -0.0141978 0 0 -0.131628 0 0 
115 1 115 0.179708 0.579988 0 0 -0.392953 -0.118493 -0.164084 -0.0121555 0 0 -0.330199 0 0 
116 1 116 0.179703 0.62 0 0 -0.395479 -0.0975614 -0.158171 -0.0116244 0 0 -0.575029 0 0 
117 1 117 0.179697 0.660014 0 0 -0.421667 -0.120258 -0.173876 -0.00990972 0 0 -0.987743 0 0 
118 1 118 0.179689 0.700029 0 0 -0.425577 -0.0853168 -0.163906 -0.012833 0 0 -1.39216 0 0 
119 1 119 0.179678 0.740048 0 0 -0.46165 -0.106922 -0.182438 -0.0108313 0 0 -2.15399 0 0 
120 1 120 0.179661 0.78007 0 0 -0.472007 -0.058215 -0.170115 -0.020559 0 0 -2.71084 0 0 
121 1 121 0.179639 0.820098 0 0 -0.516015 -0.0692904 -0.187815 -0.0171955 0 0 -3.88658 0 0 
122 1 122 0.179611 0.86013 0 0 -0.527154 -0.0139204 -0.173602 -0.0363164 0 0 -4.39718 0 0 
123 1 123 0.179577 0.90017 0 0 -0.561436 -0.0195872 -0.186438 -0.032316 0 0 -5.5082 0 0 
124 1 124 0.179543 0.940211 0 0 -0.551849 0.0125675 -0.173026 -0.0351453 0 0 -5.80767 0 0 
125 1 125 0.179513 0.980254 0 0 -0.540897 0.00149571 -0.173064 -0.028627 0 0 -5.05934 0 0 
126 1 126 0.219974 0.0199876 0 0 -0.0824285 -0.195177 -0.0890082 -0.106738 0 0 1.09093 0 0 
127 1 127 0.219919 0.0599624 0 0 -0.0800961 -0.193431 -0.0876994 -0.109567 0 0 2.22038 0 0 
128 1 128 0.219863 0.0999395 0 0 -0.099582 -0.176266 -0.0884442 -0.104517 0 0 2.20268 0 0 
129 1 129 0.219814 0.139922 0 0 -0.128496 -0.147417 -0.088465 -0.0874042 0 0 1.89214 0 0 
130 1 130 0.219774 0.179911 0 0 -0.16339 -0.124139 -0.0921923 -0.0722864 0 0 1.31943 0 0 
131 1 131 0.219744 0.219907 0 0 -0.194038 -0.100222 -0.0943521 -0.0586967 0 0 0.804819 0 0 
132 1 132 0.219722 0.259907 0 0 -0.222525 -0.087779 -0.0995006 -0.0476063 0 0 0.414726 0 0 
133 1 133 0.219706 0.299912 0 0 -0.244185 -0.0759586 -0.102658 -0.0396568 0 0 0.115476 0 0 
134 1 134 0.219694 0.339919 0 0 -0.265302 -0.0754039 -0.109258 -0.0333431 0 0 -0.0774264 0 0 
135 1 135 0.219685 0.379928 0 0 -0.279973 -0.0699805 -0.112226 -0.0287887 0 0 -0.233518 0 0 
136 1 136 0.219677 0.419938 0 0 -0.298505 -0.078177 -0.120806 -0.0251885 0 0 -0.35864 0 0 
137 1 137 0.219671 0.459949 0 0 -0.30896 -0.0721256 -0.122219 -0.0224183 0 0 -0.493501 0 0 
138 1 138 0.219666 0.499961 0 0 -0.329136 -0.0874685 -0.133623 -0.0201714 0 0 -0.65022 0 0 
139 1 139 0.219661 0.539973 0 0 -0.336636 -0.0748815 -0.13199 -0.0187439 0 0 -0.840203 0 0 
140 1 140 0.219655 0.579986 0 0 -0.361371 -0.0962477 -0.146794 -0.0173159 0 0 -1.11197 0 0 
141 1 141 0.219648 0.62 0 0 -0.367142 -0.0723534 -0.140974 -0.0180729 0 0 -1.41733 0 0 
142 1 142 0.21964 0.660016 0 0 -0.398478 -0.0961882 -0.158693 -0.0172354 0 0 -1.92497 0 0 
143 1 143 0.219628 0.700033 0 0 -0.405721 -0.0587193 -0.148985 -0.0227101 0 0 -2.39278 0 0 
144 1 144 0.219612 0.740055 0 0 -0.444101 -0.0774555 -0.167332 -0.0216618 0 0 -3.28907 0 0 
145 1 145 0.21959 0.78008 0 0 -0.455889 -0.0302216 -0.155945 -0.0354912 0 0 -3.85926 0 0 
146 1 146 0.219562 0.820112 0 0 -0.495438 -0.0367965 -0.170762 -0.0325118 0 0 -5.11342 0 0 
147 1 147 0.219529 0.860146 0 0 -0.505901 0.00239123 -0.161534 -0.0508395 0 0 -5.55776 0 0 
148 1 148 0.21949 0.900186 0 0 -0.522836 0.00341793 -0.166644 -0.0454706 0 0 -6.27238 0 0 
149 1 149 0.219456 0.940227 0 0 -0.514706 0.00963116 -0.162036 -0.0354099 0 0 -6.38764 0 0 
150 1 150 0.219429 0.980266 0 0 -0.500571 -0.00322524 -0.161626 -0.027623 0 0 -5.06208 0 0 
151 1 151 0.259976 0.0199898 0 0 -0.0535728 -0.153191 -0.0662819 -0.0966137 0 0 1.2422 0 0 
152 1 152 0.259923 0.0599678 0 0 -0.0406635 -0.165542 -0.0661026 -0.110204 0 0 2.64675 0 0 
153 1 153 0.259864 0.0999452 0 0 -0.0508742 -0.158252 -0.0670395 -0.112068 0 0 2.85627 0 0 
154 1 154 0.259809 0.139926 0 0 -0.0757237 -0.137086 -0.0682209 -0.0978814 0 0 2.58651 0 0 
155 1 155 0.259762 0.179913 0 0 -0.111162 -0.116814 -0.0730856 -0.0837523 0 0 1.8634 0 0 
156 1 156 0.259724 0.219906 0 0 -0.145117 -0.0917525 -0.0759386 -0.0688575 0 0 1.13237 0 0 
157 1 157 0.259696 0.259904 0 0 -0.179913 -0.0793914 -0.0831361 -0.0564972 0 0 0.480378 0 0 
158 1 158 0.259675 0.299907 0 0 -0.207093 -0.0648048 -0.0871764 -0.0473578 0 0 -0.0666249 0 0 
159 1 159 0.259659 0.339914 0 0 -0.23497 -0.0651664 -0.0962377 -0.0402013 0 0 -0.477669 0 0 
160 1 160 0.259647 0.379922 0 0 -0.254056 -0.0574267 -0.0998787 -0.0352155 0 0 -0.823029 0 0 
161 1 161 0.259637 0.419933 0 0 -0.278277 -0.0680456 -0.11106 -0.0313647 0 0 -1.10732 0 0 
162 1 162 0.259628 0.459944 0 0 -0.29107 -0.0592301 -0.112337 -0.0285936 0 0 -1.37985 0 0 
163 1 163 0.259621 0.499956 0 0 -0.315425 -0.0774129 -0.125992 -0.0263413 0 0 -1.66236 0 0 
164 1 164 0.259613 0.539969 0 0 -0.323265 -0.0607053 -0.123145 -0.0252508 0 0 -1.96222 0 0 
165 1 165 0.259605 0.579983 0 0 -0.350724 -0.0837116 -0.139349 -0.0239425 0 0 -2.3505 0 0 
166 1 166 0.259595 0.619999 0 0 -0.356225 -0.0550397 -0.131908 -0.025718 0 0 -2.74354 0 0 
167 1 167 0.259583 0.660017 0 0 -0.388933 -0.0774489 -0.149608 -0.0250875 0 0 -3.36867 0 0 
168 1 168 0.259567 0.700037 0 0 -0.39673 -0.0374254 -0.139259 -0.0327036 0 0 -3.88106 0 0 
169 1 169 0.259546 0.740062 0 0 -0.433314 -0.0502937 -0.155141 -0.0316151 0 0 -4.87219 0 0 
170 1 170 0.259519 0.78009 0 0 -0.445716 -0.00855342 -0.145718 -0.0473608 0 0 -5.40618 0 0 
171 1 171 0.259486 0.820124 0 0 -0.474687 -0.00614806 -0.15425 -0.0433604 0 0 -6.5661 0 0 
172 1 172 0.259449 0.860161 0 0 -0.482465 0.0155022 -0.149794 -0.0574606 0 0 -6.83747 0 0 
173 1 173 0.259408 0.900201 0 0 -0.484632 0.0200843 -0.149019 -0.0495457 0 0 -7.10683 0 0 
174 1 174 0.259376 0.94024 0 0 -0.472248 0.0116124 -0.147763 -0.0298636 0 0 -6.98172 0 0 
175 1 175 0.259353 0.980276 0 0 -0.450178 -0.00117003 -0.14478 -0.0240343 0 0 -5.27131 0 0 
176 1 176 0.299979 0.0199921 0 0 -0.0325217 -0.114982 -0.0472773 -0.0835124 0 0 1.17818 0 0 
177 1 177 0.29993 0.0599734 0 0 -0.0163981 -0.140231 -0.0502033 -0.108602 0 0 2.63586 0 0 
178 1 178 0.29987 0.099952 0 0 -0.0192678 -0.144147 -0.0523793 -0.118454 0 0 3.0976 0 0 
179 1 179 0.29981 0.139932 0 0 -0.0404596 -0.133793 -0.0558548 -0.109515 0 0 2.9156 0 0 
180 1 180 0.299755 0.179916 0 0 -0.0770838 -0.118949 -0.0628398 -0.0982641 0 0 2.06849 0 0 
181 1 181 0.29971 0.219906 0 0 -0.115601 -0.0951326 -0.067555 -0.0831836 0 0 1.12242 0 0 
182 1 182 0.299675 0.259902 0 0 -0.157959 -0.0841384 -0.0776157 -0.0700452 0 0 0.189397 0 0 
183 1 183 0.299648 0.299903 0 0 -0.191849 -0.0669307 -0.0829675 -0.0596096 0 0 -0.629026 0 0 
184 1 184 0.299627 0.339908 0 0 -0.228005 -0.0687334 -0.095147 -0.0512864 0 0 -1.28221 0 0 
185 1 185 0.29961 0.379916 0 0 -0.252305 -0.057881 -0.0994623 -0.0453871 0 0 -1.82945 0 0 
186 1 186 0.299597 0.419926 0 0 -0.283422 -0.0711418 -0.113705 -0.0407288 0 0 -2.27273 0 0 
187 1 187 0.299585 0.459938 0 0 -0.299457 -0.0589222 -0.11493 -0.0374385 0 0 -2.66446 0 0 
188 1 188 0.299575 0.499951 0 0 -0.329623 -0.0802459 -0.13146 -0.0345977 0 0 -3.0387 0 0 
189 1 189 0.299564 0.539964 0 0 -0.339773 -0.0597673 -0.128144 -0.0333889 0 0 -3.3957 0 0 
190 1 190 0.299553 0.57998 0 0 -0.371883 -0.0843779 -0.146358 -0.0315881 0 0 -3.84484 0 0 
191 1 191 0.29954 0.619997 0 0 -0.379464 -0.0524659 -0.138544 -0.0339499 0 0 -4.26311 0 0 
192 1 192 0.299524 0.660018 0 0 -0.41377 -0.0719989 -0.155835 -0.0327998 0 0 -4.95665 0 0 
193 1 193 0.299504 0.700041 0 0 -0.42324 -0.0321935 -0.146092 -0.0417534 0 0 -5.46749 0 0 
194 1 194 0.299478 0.740069 0 0 -0.45521 -0.0366353 -0.157787 -0.0396758 0 0 -6.4919 0 0 
195 1 195 0.299446 0.780101 0 0 -0.467183 -0.00322327 -0.1509 -0.0554403 0 0 -6.9302 0 0 
196 1 196 0.299409 0.820138 0 0 -0.484154 0.00760872 -0.152872 -0.0490949 0 0 -7.8937 0 0 
197 1 197 0.29937 0.860176 0 0 -0.485942 0.0139122 -0.151422 -0.0571002 0 0 -7.90561 0 0 
198 1 198 0.29933 0.900215 0 0 -0.47202 0.0195213 -0.145149 -0.0472543 0 0 -7.59229 0 0 
199 1 199 0.299301 0.940252 0 0 -0.454322 0.00296235 -0.144784 -0.0188577 0 0 -7.26494 0 0 
200 1 200 0.299283 0.980285 0 0 -0.42938 -0.010593 -0.141127 -0.0146189 0 0 -5.46864 0 0 
201 1 201 0.339982 0.0199938 0 0 -0.0253925 -0.0896589 -0.0368727 -0.0720027 0 0 0.876368 0 0 
202 1 202 0.339938 0.0599782 0 0 -0.015475 -0.123472 -0.0445338 -0.106294 0 0 2.14233 0 0 
203 1 203 0.339878 0.0999585 0 0 -0.0158678 -0.138926 -0.049615 -0.123542 0 0 2.86341 0 0 
204 1 204 0.339814 0.139938 0 0 -0.0361675 -0.14278 -0.0573603 -0.12206 0 0 2.82561 0 0 
205 1 205 0.339753 0.179919 0 0 -0.0747997 -0.136022 -0.0675832 -0.115373 0 0 1.95168 0 0 
206 1 206 0.3397 0.219906 0 0 -0.118028 -0.115598 -0.0748979 -0.101041 0 0 0.868033 0 0 
207 1 207 0.339656 0.259899 0 0 -0.167727 -0.106737 -0.0879994 -0.0875276 0 0 -0.310303 0 0 
208 1 208 0.339621 0.299898 0 0 -0.207441 -0.0862442 -0.094167 -0.0755586 0 0 -1.38735 0 0 
209 1 209 0.339594 0.339902 0 0 -0.25066 -0.0886341 -0.108804 -0.0655814 0 0 -2.28707 0 0 
210 1 210 0.339572 0.379908 0 0 -0.277908 -0.072348 -0.112323 -0.0581582 0 0 -3.04418 0 0 
211 1 211 0.339555 0.419918 0 0 -0.313436 -0.0864891 -0.128268 -0.052053 0 0 -3.65817 0 0 
212 1 212 0.339539 0.45993 0 0 -0.329162 -0.0680944 -0.127411 -0.0477078 0 0 -4.18255 0 0 
213 1 213 0.339525 0.499944 0 0 -0.360923 -0.0896916 -0.144544 -0.043725 0 0 -4.67192 0 0 
214 1 214 0.339512 0.539959 0 0 -0.368848 -0.0629719 -0.138509 -0.0420355 0 0 -5.1136 0 0 
215 1 215 0.339497 0.579977 0 0 -0.400162 -0.0851358 -0.155684 -0.0392911 0 0 -5.65852 0 0 
216 1 216 0.33948 0.619996 0 0 -0.406221 -0.049252 -0.146104 -0.0419786 0 0 -6.12245 0 0 
217 1 217 0.33946 0.66002 0 0 -0.437665 -0.0620326 -0.160309 -0.0398335 0 0 -6.88593 0 0 
218 1 218 0.339436 0.700046 0 0 -0.447822 -0.0244693 -0.151506 -0.0495303 0 0 -7.36152 0 0 
219 1 219 0.339405 0.740078 0 0 -0.47336 -0.0193681 -0.15807 -0.0456262 0 0 -8.34474 0 0 
220 1 220 0.33937 0.780113 0 0 -0.484457 0.00340961 -0.154318 -0.0597626 0 0 -8.60154 0 0 
221 1 221 0.339329 0.820152 0 0 -0.488959 0.0201563 -0.150385 -0.0505595 0 0 -9.23202 0 0 
222 1 222 0.33929 0.860192 0 0 -0.484182 0.0126205 -0.151272 -0.0502542 0 0 -8.97555 0 0 
223 1 223 0.339254 0.90023 0 0 -0.457167 0.0155478 -0.141655 -0.0394237 0 0 -8.10266 0 0 
224 1 224 0.33923 0.940264 0 0 -0.432807 0.000125029 -0.138786 -0.00622657 0 0 -7.65174 0 0 
225 1 225 0.339216 0.980296 0 0 -0.410245 -0.0149793 -0.136391 -0.00344076 0 0 -6.10099 0 0 
226 1 226 0.379984 0.0199945 0 0 -0.0353887 -0.0842758 -0.0383515 -0.0672714 0 0 0.311136 0 0 
227 1 227 0.379942 0.0599811 0 0 -0.038757 -0.118176 -0.0503008 -0.105662 0 0 1.0704 0 0 
228 1 228 0.379884 0.0999633 0 0 -0.0385626 -0.142068 -0.0579001 -0.128049 0 0 1.97342 0 0 
229 1 229 0.379818 0.139943 0 0 -0.0558299 -0.159394 -0.068995 -0.135287 0 0 2.09852 0 0 
230 1 230 0.379751 0.179922 0 0 -0.0921511 -0.160523 -0.0810085 -0.134209 0 0 1.30383 0 0 
231 1 231 0.379689 0.219907 0 0 -0.135959 -0.143963 -0.0897508 -0.121569 0 0 0.186793 0 0 
232 1 232 0.379636 0.259896 0 0 -0.189625 -0.136863 -0.104694 -0.108125 0 0 -1.14521 0 0 
233 1 233 0.379593 0.299892 0 0 -0.232805 -0.112101 -0.110605 -0.0944111 0 0 -2.39072 0 0 
234 1 234 0.379559 0.339894 0 0 -0.281989 -0.114332 -0.12711 -0.0823209 0 0 -3.45345 0 0 
235 1 235 0.379531 0.379899 0 0 -0.311557 -0.0911952 -0.129175 -0.0727481 0 0 -4.33321 0 0 
236 1 236 0.379508 0.419909 0 0 -0.351733 -0.105502 -0.14667 -0.0645234 0 0 -5.03138 0 0 
237 1 237 0.379489 0.459921 0 0 -0.367958 -0.0803776 -0.143812 -0.0585807 0 0 -5.59762 0 0 
238 1 238 0.379471 0.499936 0 0 -0.402633 -0.101594 -0.161764 -0.0529296 0 0 -6.11304 0 0 
239 1 239 0.379454 0.539953 0 0 -0.41112 -0.070004 -0.154343 -0.0504662 0 0 -6.54764 0 0 
240 1 240 0.379436 0.579973 0 0 -0.4435 -0.0887676 -0.170772 -0.0464078 0 0 -7.1094 0 0 
241 1 241 0.379415 0.619995 0 0 -0.45128 -0.0518915 -0.161425 -0.0492097 0 0 -7.55281 0 0 
242 1 242 0.379391 0.660023 0 0 -0.479844 -0.0563753 -0.172042 -0.045618 0 0 -8.34882 0 0 
243 1 243 0.379362 0.700053 0 0 -0.490974 -0.0238192 -0.165158 -0.0554092 0 0 -8.77648 0 0 
244 1 244 0.379327 0.740088 0 0 -0.507531 -0.00880459 -0.165654 -0.0491162 0 0 -9.70613 0 0 
245 1 245 0.379289 0.780127 0 0 -0.515322 0.00255563 -0.164507 -0.0599251 0 0 -9.81108 0 0 
246 1 246 0.379248 0.820167 0 0 -0.506877 0.021602 -0.155676 -0.0479296 0 0 -10.0811 0 0 
247 1 247 0.379211 0.860208 0 0 -0.494229 0.00443085 -0.157129 -0.0384868 0 0 -9.6111 0 0 
248 1 248 0.37918 0.900244 0 0 -0.460669 -0.000688233 -0.147994 -0.0274551 0 0 -8.29562 0 0 
249 1 249 0.379161 0.940277 0 0 -0.433462 -0.00773684 -0.141521 0.00586317 0 0 -7.83019 0 0 
250 1 250 0.379151 0.980308 0 0 -0.421693 -0.0254114 -0.143417 0.00758649 0 0 -6.83022 0 0 
251 1 251 0.419983 0.0199939 0 0 -0.0632798 -0.103077 -0.0533226 -0.0736806 0 0 -0.425444 0 0 
252 1 252 0.419941 0.0599811 0 0 -0.0859844 -0.127367 -0.0683943 -0.108299 0 0 -0.391226 0 0 
253 1 253 0.419885 0.0999653 0 0 -0.0891538 -0.155607 -0.0784697 -0.131761 0 0 0.619014 0 0 
254 1 254 0.419818 0.139945 0 0 -0.103338 -0.183975 -0.0921222 -0.147741 0 0 0.96588 0 0 
255 1 255 0.419746 0.179924 0 0 -0.134491 -0.19286 -0.104971 -0.152648 0 0 0.44443 0 0 
256 1 256 0.419676 0.219906 0 0 -0.174559 -0.180599 -0.113896 -0.142604 0 0 -0.510683 0 0 
257 1 257 0.419615 0.259892 0 0 -0.226947 -0.174368 -0.128714 -0.129654 0 0 -1.83548 0 0 
258 1 258 0.419563 0.299885 0 0 -0.267815 -0.14337 -0.131883 -0.114035 0 0 -3.13876 0 0 
259 1 259 0.41952 0.339885 0 0 -0.316794 -0.142488 -0.147328 -0.0994326 0 0 -4.31022 0 0 
260 1 260 0.419486 0.379889 0 0 -0.342211 -0.108739 -0.144652 -0.0871841 0 0 -5.29362 0 0 
261 1 261 0.419458 0.419899 0 0 -0.380596 -0.119162 -0.160329 -0.0763569 0 0 -6.08686 0 0 
262 1 262 0.419434 0.459911 0 0 -0.391445 -0.0839628 -0.152507 -0.0685477 0 0 -6.7218 0 0 
263 1 263 0.419412 0.499928 0 0 -0.422763 -0.100169 -0.167773 -0.0610254 0 0 -7.30927 0 0 
264 1 264 0.419391 0.539947 0 0 -0.427197 -0.0620354 -0.156947 -0.0578357 0 0 -7.79123 0 0 
265 1 265 0.41937 0.57997 0 0 -0.455102 -0.0727517 -0.169354 -0.0524435 0 0 -8.43156 0 0 
266 1 266 0.419345 0.619996 0 0 -0.462511 -0.0357306 -0.159841 -0.0554556 0 0 -8.89831 0 0 
267 1 267 0.419316 0.660027 0 0 -0.486083 -0.0299715 -0.165563 -0.0503391 0 0 -9.73747 0 0 
268 1 268 0.419283 0.700061 0 0 -0.499869 -0.00572165 -0.162202 -0.0597155 0 0 -10.091 0 0 
269 1 269 0.419245 0.740101 0 0 -0.510402 0.0155052 -0.158767 -0.0508326 0 0 -10.8791 0 0 
270 1 270 0.419205 0.780142 0 0 -0.517719 0.0136181 -0.161724 -0.0568274 0 0 -10.7807 0 0 
271 1 271 0.419164 0.820184 0 0 -0.502428 0.0273495 -0.152401 -0.0423132 0 0 -10.6344 0 0 
272 1 272 0.419132 0.860224 0 0 -0.484154 0.00518304 -0.153651 -0.0239741 0 0 -10.0366 0 0 
273 1 273 0.419107 0.90026 0 0 -0.451516 -0.0117608 -0.148611 -0.0137243 0 0 -8.52056 0 0 
274 1 274 0.419092 0.940291 0 0 -0.424208 -0.00491892 -0.137644 0.0140888 0 0 -8.20391 0 0 
275 1 275 0.419084 0.980322 0 0 -0.427444 -0.0242467 -0.144889 0.0151095 0 0 -7.99591 0 0 
276 1 276 0.459979 0.0199921 0 0 -0.10336 -0.143913 -0.0792759 -0.0933758 0 0 -1.21375 0 0 
277 1 277 0.459933 0.059978 0 0 -0.144382 -0.14793 -0.0937264 -0.114925 0 0 -2.04109 0 0 
278 1 278 0.459878 0.0999638 0 0 -0.150697 -0.173417 -0.103932 -0.134177 0 0 -1.09363 0 0 
279 1 279 0.459812 0.139945 0 0 -0.15698 -0.205193 -0.116147 -0.157263 0 0 -0.555404 0 0 
280 1 280 0.459736 0.179924 0 0 -0.175335 -0.218487 -0.126308 -0.167561 0 0 -0.670928 0 0 
281 1 281 0.459661 0.219903 0 0 -0.202936 -0.208453 -0.131948 -0.160993 0 0 -1.30063 0 0 
282 1 282 0.459591 0.259888 0 0 -0.246483 -0.201511 -0.143703 -0.149218 0 0 -2.44026 0 0 
283 1 283 0.45953 0.299878 0 0 -0.280133 -0.163542 -0.142316 -0.132049 0 0 -3.62932 0 0 
284 1 284 0.45948 0.339876 0 0 -0.326708 -0.158793 -0.155749 -0.115071 0 0 -4.75399 0 0 
285 1 285 0.459439 0.379879 0 0 -0.3486 -0.114747 -0.148633 -0.1001 0 0 -5.69445 0 0 
286 1 286 0.459405 0.419888 0 0 -0.387195 -0.12108 -0.163064 -0.0865834 0 0 -6.45755 0 0 
287 1 287 0.459377 0.459902 0 0 -0.396688 -0.0776936 -0.152177 -0.0769542 0 0 -7.05375 0 0 
288 1 288 0.459351 0.49992 0 0 -0.428302 -0.0886518 -0.165852 -0.0676489 0 0 -7.63031 0 0 
289 1 289 0.459326 0.539941 0 0 -0.434591 -0.0477494 -0.154734 -0.0640522 0 0 -8.09169 0 0 
290 1 290 0.459301 0.579968 0 0 -0.462028 -0.0503952 -0.164397 -0.057589 0 0 -8.76361 0 0 
291 1 291 0.459272 0.619998 0 0 -0.474251 -0.0176662 -0.157809 -0.0610647 0 0 -9.227 0 0 
292 1 292 0.459239 0.660033 0 0 -0.494649 -0.00262503 -0.15953 -0.0545194 0 0 -10.1067 0 0 
293 1 293 0.459202 0.700072 0 0 -0.511074 0.0115201 -0.160263 -0.0629426 0 0 -10.428 0 0 
294 1 294 0.459161 0.740115 0 0 -0.51485 0.0354607 -0.153785 -0.0514723 0 0 -11.115 0 0 
295 1 295 0.45912 0.780159 0 0 -0.518329 0.0232368 -0.15883 -0.0515475 0 0 -10.9221 0 0 
296 1 296 0.459082 0.820202 0 0 -0.499206 0.0258162 -0.151859 -0.035353 0 0 -10.4491 0 0 
297 1 297 0.459054 0.860241 0 0 -0.477859 0.00425863 -0.151927 -0.00993592 0 0 -9.85981 0 0 
298 1 298 0.459036 0.900275 0 0 -0.456486 -0.0270826 -0.155128 -0.00144109 0 0 -8.39801 0 0 
299 1 299 0.459024 0.940306 0 0 -0.437065 -0.00721017 -0.142508 0.0159482 0 0 -8.29471 0 0 
300 1 300 0.459015 0.980338 0 0 -0.459078 -0.0279243 -0.156231 0.017105 0 0 -8.89168 0 0 
301 1 301 0.499971 0.0199893 0 0 -0.147755 -0.199407 -0.11133 -0.125325 0 0 -1.8378 0 0 
302 1 302 0.499917 0.0599724 0 0 -0.203378 -0.176869 -0.12195 -0.125157 0 0 -3.42936 0 0 
303 1 303 0.499863 0.0999588 0 0 -0.214955 -0.193869 -0.131124 -0.13466 0 0 -2.69667 0 0 
304 1 304 0.499798 0.139942 0 0 -0.212751 -0.220868 -0.139086 -0.161474 0 0 -1.98814 0 0 
305 1 305 0.499722 0.179921 0 0 -0.216057 -0.236681 -0.145226 -0.175677 0 0 -1.54912 0 0 
306 1 306 0.499643 0.219901 0 0 -0.226657 -0.227912 -0.145814 -0.1735 0 0 -1.66511 0 0 
307 1 307 0.499566 0.259883 0 0 -0.256085 -0.220088 -0.152753 -0.163888 0 0 -2.42991 0 0 
308 1 308 0.499498 0.299871 0 0 -0.276932 -0.174928 -0.144944 -0.146082 0 0 -3.38054 0 0 
309 1 309 0.499441 0.339867 0 0 -0.314671 -0.163956 -0.153541 -0.127395 0 0 -4.42259 0 0 
310 1 310 0.499393 0.379869 0 0 -0.327256 -0.107868 -0.139569 -0.110182 0 0 -5.35476 0 0 
311 1 311 0.499354 0.419878 0 0 -0.359812 -0.105914 -0.149397 -0.0944468 0 0 -6.17673 0 0 
312 1 312 0.49932 0.459893 0 0 -0.364136 -0.0531995 -0.133857 -0.0836065 0 0 -6.84383 0 0 
313 1 313 0.499291 0.499913 0 0 -0.391735 -0.0546886 -0.143198 -0.0731366 0 0 -7.52808 0 0 
314 1 314 0.499262 0.539937 0 0 -0.398561 -0.011668 -0.131575 -0.0698197 0 0 -8.08071 0 0 
315 1 315 0.499231 0.579968 0 0 -0.42301 -0.00351524 -0.136808 -0.0627727 0 0 -8.88485 0 0 
316 1 316 0.499198 0.620002 0 0 -0.439954 0.023266 -0.133649 -0.0669657 0 0 -9.41898 0 0 
317 1 317 0.499161 0.660042 0 0 -0.457954 0.0457326 -0.132215 -0.0591074 0 0 -10.3611 0 0 
318 1 318 0.49912 0.700085 0 0 -0.478714 0.048287 -0.138061 -0.0659347 0 0 -10.6384 0 0 
319 1 319 0.499077 0.740131 0 0 -0.48176 0.0670951 -0.132999 -0.0520447 0 0 -11.1456 0 0 
320 1 320 0.499037 0.780177 0 0 -0.484586 0.046055 -0.140663 -0.0454924 0 0 -10.8421 0 0 
321 1 321 0.499002 0.820219 0 0 -0.469263 0.0310007 -0.140577 -0.0286427 0 0 -10.0827 0 0 
322 1 322 0.498979 0.860258 0 0 -0.447638 0.0153797 -0.138649 0.000846445 0 0 -9.63518 0 0 
323 1 323 0.498966 0.900291 0 0 -0.440469 -0.0268066 -0.149895 0.00686767 0 0 -8.55664 0 0 
324 1 324 0.498954 0.940321 0 0 -0.428815 0.00423564 -0.136184 0.010641 0 0 -8.77952 0 0 
325 1 325 0.498942 0.980355 0 0 -0.463491 -0.014579 -0.153362 0.0125646 0 0 -10.0617 0 0 
326 1 326 0.539962 0.0199862 0 0 -0.182919 -0.255439 -0.140608 -0.164814 0 0 -2.13406 0 0 
327 1 327 0.539895 0.0599653 0 0 -0.241803 -0.204678 -0.143217 -0.137741 0 0 -4.25462 0 0 
328 1 328 0.53984 0.0999513 0 0 -0.257617 -0.207774 -0.149289 -0.133325 0 0 -3.95795 0 0 
329 1 329 0.539778 0.139936 0 0 -0.245603 -0.220097 -0.149389 -0.159153 0 0 -3.21852 0 0 