ITEM: TIMESTEP
0
ITEM: NUMBER OF ATOMS
7127
ITEM: BOX BOUNDS sm sm sm
0 4
0 2
0 0
ITEM: ATOMS id type tag x y z vx 
0 1 0 0 0 0 0 
1 1 1 0 0.04 0 0 
2 1 2 0 0.08 0 0 
3 1 3 0 0.12 0 0 
4 1 4 0 0.16 0 0 
5 1 5 0 0.2 0 0 
6 1 6 0 0.24 0 0 
7 1 7 0 0.28 0 0 
8 1 8 0 0.32 0 0 
9 1 9 0 0.36 0 0 
10 1 10 0 0.4 0 0 
11 1 11 0 0.44 0 0 
12 1 12 0 0.48 0 0 
13 1 13 0 0.52 0 0 
14 1 14 0 0.56 0 0 
15 1 15 0 0.6 0 0 
16 1 16 0 0.64 0 0 
17 1 17 0 0.68 0 0 
18 1 18 0 0.72 0 0 
19 1 19 0 0.76 0 0 
20 1 20 0 0.8 0 0 
21 1 21 0 0.84 0 0 
22 1 22 0 0.88 0 0 
23 1 23 0 0.92 0 0 
24 1 24 0 0.96 0 0 
25 1 25 0 1 0 0 
26 1 26 0.04 0 0 0 
27 1 27 0.0399926 0.039992 0 -0.0714015 
28 1 28 0.0399896 0.0799889 0 0.0646053 
29 1 29 0.0399896 0.11999 0 0.119979 
30 1 30 0.0399902 0.159994 0 0.166584 
31 1 31 0.0399907 0.199994 0 0.0728045 
32 1 32 0.0399954 0.239995 0 0.0304081 
33 1 33 0.0399943 0.279991 0 -0.0320566 
34 1 34 0.0399927 0.319991 0 -0.138146 
35 1 35 0.0399886 0.359992 0 -0.00303749 
36 1 36 0.0399828 0.399999 0 -0.267482 
37 1 37 0.0399851 0.440005 0 -0.282772 
38 1 38 0.0399794 0.480013 0 -0.264215 
39 1 39 0.039984 0.520016 0 -0.406813 
40 1 40 0.0399842 0.560018 0 -0.106004 
41 1 41 0.0399802 0.60002 0 -0.147336 
42 1 42 0.0399828 0.640025 0 -0.0285862 
43 1 43 0.0399787 0.68003 0 0.433313 
44 1 44 0.039973 0.720043 0 0.145101 
45 1 45 0.039984 0.76005 0 0.28534 
46 1 46 0.0399748 0.800062 0 0.347327 
47 1 47 0.0399837 0.840066 0 -0.148346 
48 1 48 0.0399833 0.880068 0 -0.0104883 
49 1 49 0.0399782 0.920068 0 -0.0861675 
50 1 50 0.0399675 0.960071 0 -0.535728 
51 1 51 0.0399143 1.0001 0 -0.78347 
52 1 52 0.08 0 0 0 
53 1 53 0.0799915 0.0399903 0 -0.233569 
54 1 54 0.0799822 0.0799835 0 -0.0180938 
55 1 55 0.0799771 0.119981 0 0.239768 
56 1 56 0.0799786 0.159983 0 0.334702 
57 1 57 0.0799827 0.199982 0 -0.0280194 
58 1 58 0.0799909 0.239982 0 -0.188296 
59 1 59 0.0799887 0.279977 0 -0.162284 
60 1 60 0.0799827 0.319979 0 -0.238269 
61 1 61 0.0799728 0.359982 0 -0.0113386 
62 1 62 0.0799604 0.399994 0 -0.360618 
63 1 63 0.0799628 0.440005 0 -0.410886 
64 1 64 0.0799557 0.480018 0 -0.448394 
65 1 65 0.079963 0.520029 0 -0.650977 
66 1 66 0.0799634 0.560036 0 -0.166848 
67 1 67 0.0799577 0.600044 0 -0.0802932 
68 1 68 0.0799572 0.640054 0 0.201787 
69 1 69 0.0799479 0.680067 0 0.710984 
70 1 70 0.0799426 0.720084 0 0.521266 
71 1 71 0.0799506 0.760104 0 0.595617 
72 1 72 0.0799501 0.800117 0 0.325361 
73 1 73 0.0799611 0.840131 0 -0.224888 
74 1 74 0.0799643 0.880134 0 -0.130626 
75 1 75 0.0799554 0.920141 0 -0.332662 
76 1 76 0.0799252 0.960157 0 -0.917815 
77 1 77 0.0798727 1.00016 0 -1.26592 
78 1 78 0.12 0 0 0 
79 1 79 0.119991 0.0399896 0 -0.385629 
80 1 80 0.119977 0.0799813 0 -0.081262 
81 1 81 0.119969 0.119975 0 0.371218 
82 1 82 0.11997 0.159972 0 0.404169 
83 1 83 0.119976 0.199966 0 -0.233944 
84 1 84 0.119984 0.239965 0 -0.554365 
85 1 85 0.119982 0.27996 0 -0.521078 
86 1 86 0.119969 0.319965 0 -0.528571 
87 1 87 0.119954 0.359971 0 -0.265841 
88 1 88 0.119935 0.399984 0 -0.489975 
89 1 89 0.119934 0.439999 0 -0.521917 
90 1 90 0.119927 0.480016 0 -0.591387 
91 1 91 0.119937 0.520032 0 -0.657259 
92 1 92 0.119936 0.560047 0 -0.128442 
93 1 93 0.119934 0.600063 0 0.0883168 
94 1 94 0.119928 0.640078 0 0.696589 
95 1 95 0.119913 0.680102 0 1.06014 
96 1 96 0.119911 0.720122 0 0.987461 
97 1 97 0.119913 0.760148 0 1.02975 
98 1 98 0.119919 0.800171 0 0.158317 
99 1 99 0.119939 0.840185 0 -0.286466 
100 1 100 0.119939 0.880203 0 -0.290844 
101 1 101 0.119929 0.920211 0 -0.740769 
102 1 102 0.119896 0.960222 0 -1.22278 
103 1 103 0.119842 1.00024 0 -1.5836 
104 1 104 0.16 0 0 0 
105 1 105 0.159988 0.039989 0 -0.284221 
106 1 106 0.159974 0.0799808 0 -0.0508151 
107 1 107 0.159965 0.119971 0 0.308096 
108 1 108 0.159965 0.159963 0 0.23304 
109 1 109 0.159971 0.199954 0 -0.467924 
110 1 110 0.159975 0.23995 0 -0.910632 
111 1 111 0.159971 0.279947 0 -0.980492 
112 1 112 0.159952 0.319951 0 -0.885083 
113 1 113 0.15993 0.359959 0 -0.582481 
114 1 114 0.159908 0.399973 0 -0.607754 
115 1 115 0.159902 0.43999 0 -0.586494 
116 1 116 0.159896 0.48001 0 -0.59682 
117 1 117 0.159904 0.520029 0 -0.387279 
118 1 118 0.159902 0.56005 0 0.126141 
119 1 119 0.159899 0.600074 0 0.437535 
120 1 120 0.15989 0.640094 0 1.19716 
121 1 121 0.15987 0.680125 0 1.46722 
122 1 122 0.159869 0.720152 0 1.40353 
123 1 123 0.159871 0.760182 0 1.28515 
124 1 124 0.159882 0.800214 0 0.19148 
125 1 125 0.159906 0.840236 0 -0.217948 
126 1 126 0.159907 0.88026 0 -0.54508 
127 1 127 0.159906 0.920277 0 -1.0818 
128 1 128 0.15987 0.960288 0 -1.19762 
129 1 129 0.159812 1.0003 0 -1.44346 
130 1 130 0.2 0 0 0 
131 1 131 0.199987 0.0399899 0 -0.108261 
132 1 132 0.199973 0.0799805 0 -0.0570507 
133 1 133 0.199964 0.119967 0 0.165857 
134 1 134 0.199964 0.159955 0 0.020284 
135 1 135 0.199968 0.199944 0 -0.636149 
136 1 136 0.199965 0.239938 0 -1.14918 
137 1 137 0.199956 0.279937 0 -1.32785 
138 1 138 0.199933 0.319942 0 -1.14947 
139 1 139 0.199904 0.35995 0 -0.81332 
140 1 140 0.199882 0.399965 0 -0.602771 
141 1 141 0.199868 0.43998 0 -0.470634 
142 1 142 0.199865 0.480001 0 -0.398734 
143 1 143 0.19987 0.520023 0 -0.0110456 
144 1 144 0.199867 0.560047 0 0.364925 
145 1 145 0.199866 0.600077 0 0.836978 
146 1 146 0.199851 0.640106 0 1.57174 
147 1 147 0.199834 0.68014 0 1.72911 
148 1 148 0.199828 0.720174 0 1.83257 
149 1 149 0.199827 0.760209 0 1.42271 
150 1 150 0.199844 0.800244 0 0.323353 
151 1 151 0.199867 0.840279 0 0.0021181 
152 1 152 0.199872 0.880308 0 -0.735484 
153 1 153 0.19988 0.920333 0 -1.27311 
154 1 154 0.199847 0.960351 0 -1.07845 
155 1 155 0.199793 1.00036 0 -1.2349 
156 1 156 0.24 0 0 0 
157 1 157 0.239986 0.0399905 0 0.0244558 
158 1 158 0.239973 0.0799796 0 -0.0834263 
159 1 159 0.239967 0.119964 0 -0.015185 
160 1 160 0.239964 0.15995 0 -0.228722 
161 1 161 0.239964 0.199937 0 -0.687878 
162 1 162 0.239952 0.239932 0 -1.15966 
163 1 163 0.239938 0.279933 0 -1.51369 
164 1 164 0.23991 0.319942 0 -1.33528 
165 1 165 0.239878 0.35995 0 -0.982637 
166 1 166 0.239856 0.399963 0 -0.495337 
167 1 167 0.239836 0.439978 0 -0.181884 
168 1 168 0.239833 0.479997 0 -0.0724111 
169 1 169 0.239835 0.520021 0 0.429786 
170 1 170 0.239827 0.560048 0 0.688871 
171 1 171 0.239824 0.60008 0 1.23137 
172 1 172 0.239803 0.640116 0 1.92951 
173 1 173 0.239787 0.680153 0 1.9607 
174 1 174 0.239781 0.720188 0 2.09979 
175 1 175 0.239779 0.760229 0 1.65387 
176 1 176 0.239796 0.800268 0 0.704951 
177 1 177 0.23982 0.840311 0 0.265616 
178 1 178 0.239833 0.880351 0 -0.675257 
179 1 179 0.239846 0.920382 0 -1.12336 
180 1 180 0.239822 0.960405 0 -0.859116 
181 1 181 0.239779 1.00042 0 -0.974334 
182 1 182 0.28 0 0 0 
183 1 183 0.279987 0.0399896 0 0.189484 
184 1 184 0.279976 0.0799786 0 -0.0938213 
185 1 185 0.279974 0.119963 0 -0.334345 
186 1 186 0.279965 0.159947 0 -0.527672 
187 1 187 0.279959 0.199935 0 -0.656459 
188 1 188 0.279937 0.23993 0 -1.04809 
189 1 189 0.279915 0.279935 0 -1.61995 
190 1 190 0.279884 0.319943 0 -1.43854 
191 1 191 0.279852 0.359955 0 -1.01329 
192 1 192 0.279831 0.399965 0 -0.357706 
193 1 193 0.279808 0.43998 0 0.180814 
194 1 194 0.279802 0.479998 0 0.38396 
195 1 195 0.2798 0.520021 0 0.895984 
196 1 196 0.279791 0.560052 0 1.16419 
197 1 197 0.279784 0.600086 0 1.64884 
198 1 198 0.279765 0.640124 0 2.23328 
199 1 199 0.279749 0.680162 0 2.40126 
200 1 200 0.279738 0.720202 0 2.39188 
201 1 201 0.279736 0.760243 0 1.93139 
202 1 202 0.279748 0.800287 0 1.35585 
203 1 203 0.279767 0.840335 0 0.614946 
204 1 204 0.279791 0.880379 0 -0.484329 
205 1 205 0.279809 0.920419 0 -0.868977 
206 1 206 0.279797 0.960447 0 -0.675507 
207 1 207 0.279772 1.00046 0 -0.680503 
208 1 208 0.32 0 0 0 
209 1 209 0.319989 0.0399902 0 0.298605 
210 1 210 0.31998 0.0799782 0 -0.0948173 
211 1 211 0.31998 0.119963 0 -0.614614 
212 1 212 0.319967 0.159947 0 -0.738559 
213 1 213 0.319953 0.199938 0 -0.659359 
214 1 214 0.319922 0.239934 0 -1.01664 
215 1 215 0.319891 0.27994 0 -1.63161 
216 1 216 0.319859 0.319949 0 -1.4659 
217 1 217 0.319828 0.359961 0 -0.956278 
218 1 218 0.319806 0.399972 0 -0.191075 
219 1 219 0.319783 0.439985 0 0.55086 
220 1 220 0.319772 0.480004 0 0.956362 
221 1 221 0.319763 0.520028 0 1.29602 
222 1 222 0.319751 0.56006 0 1.55873 
223 1 223 0.319734 0.600097 0 2.04616 
224 1 224 0.319714 0.640138 0 2.39246 
225 1 225 0.319701 0.680175 0 2.73587 
226 1 226 0.319686 0.720217 0 2.7346 
227 1 227 0.319686 0.760258 0 2.32347 
228 1 228 0.319695 0.800303 0 2.03209 
229 1 229 0.319713 0.840352 0 1.0872 
230 1 230 0.319744 0.880396 0 -0.0561386 
231 1 231 0.319764 0.92044 0 -0.620594 
232 1 232 0.319773 0.960469 0 -0.557112 
233 1 233 0.319767 1.00048 0 -0.32083 
234 1 234 0.36 0 0 0 
235 1 235 0.359992 0.0399915 0 0.24083 
236 1 236 0.359986 0.0799778 0 -0.198413 
237 1 237 0.359985 0.119965 0 -0.874851 
238 1 238 0.359969 0.159951 0 -0.970379 
239 1 239 0.359946 0.199944 0 -0.693492 
240 1 240 0.359906 0.239942 0 -0.92654 
241 1 241 0.359868 0.279949 0 -1.38362 
242 1 242 0.359833 0.31996 0 -1.29636 
243 1 243 0.359805 0.359971 0 -0.829388 
244 1 244 0.35978 0.399984 0 0.096086 
245 1 245 0.359758 0.439998 0 0.873183 
246 1 246 0.359744 0.480016 0 1.37334 
247 1 247 0.359727 0.520043 0 1.60049 
248 1 248 0.359713 0.560075 0 1.7483 
249 1 249 0.359694 0.600111 0 2.19221 
250 1 250 0.359675 0.640153 0 2.40909 
251 1 251 0.359663 0.68019 0 2.79721 
252 1 252 0.359646 0.720232 0 2.84541 
253 1 253 0.359645 0.760271 0 2.71059 
254 1 254 0.359648 0.800314 0 2.601 
255 1 255 0.359665 0.840358 0 1.54298 
256 1 256 0.359698 0.8804 0 0.469918 
257 1 257 0.359721 0.920442 0 -0.399474 
258 1 258 0.359748 0.96047 0 -0.398709 
259 1 259 0.35976 1.00048 0 0.173914 
260 1 260 0.4 0 0 0 
261 1 261 0.399994 0.0399921 0 0.108368 
262 1 262 0.399991 0.0799785 0 -0.350304 
263 1 263 0.399987 0.119969 0 -1.04971 
264 1 264 0.399967 0.159959 0 -1.20287 
265 1 265 0.399935 0.199957 0 -0.771654 
266 1 266 0.399889 0.239958 0 -0.844006 
267 1 267 0.399845 0.279967 0 -1.09871 
268 1 268 0.399807 0.319979 0 -0.913416 
269 1 269 0.399782 0.359994 0 -0.472069 
270 1 270 0.399758 0.400006 0 0.513858 
271 1 271 0.399734 0.440025 0 1.2505 
272 1 272 0.399715 0.480042 0 1.65123 
273 1 273 0.39969 0.520069 0 1.714 
274 1 274 0.39967 0.560102 0 1.66495 
275 1 275 0.399646 0.600136 0 1.85624 
276 1 276 0.399627 0.640174 0 2.05776 
277 1 277 0.399613 0.680208 0 2.55997 
278 1 278 0.3996 0.720246 0 2.67807 
279 1 279 0.399599 0.760279 0 2.84937 
280 1 280 0.399602 0.800318 0 2.88841 
281 1 281 0.399621 0.840354 0 1.91052 
282 1 282 0.399653 0.88039 0 0.87603 
283 1 283 0.39968 0.920426 0 -0.298272 
284 1 284 0.399722 0.96045 0 -0.259503 
285 1 285 0.399745 1.00047 0 0.572624 
286 1 286 0.44 0 0 0 
287 1 287 0.439997 0.0399908 0 -0.0951136 
288 1 288 0.439993 0.0799797 0 -0.577144 
289 1 289 0.439985 0.119974 0 -1.17146 
290 1 290 0.439959 0.159971 0 -1.34823 
291 1 291 0.439923 0.199974 0 -0.860911 
292 1 292 0.439871 0.239981 0 -0.6997 
293 1 293 0.439822 0.279992 0 -0.662769 
294 1 294 0.439783 0.320004 0 -0.291299 
295 1 295 0.439758 0.360023 0 0.106459 
296 1 296 0.439734 0.400037 0 0.883808 
297 1 297 0.439711 0.440057 0 1.52255 
298 1 298 0.439688 0.480076 0 1.82673 
299 1 299 0.439659 0.520101 0 1.6337 
300 1 300 0.439637 0.56013 0 1.39412 
301 1 301 0.439613 0.60016 0 1.3069 
302 1 302 0.439598 0.640192 0 1.38996 
303 1 303 0.439584 0.680223 0 1.94159 
304 1 304 0.439571 0.720255 0 2.30127 
305 1 305 0.439566 0.760284 0 2.78884 
306 1 306 0.439568 0.800316 0 2.93218 
307 1 307 0.439587 0.840343 0 2.22076 
308 1 308 0.439615 0.880373 0 1.20186 
309 1 309 0.439647 0.920398 0 -0.0907201 
310 1 310 0.439693 0.96042 0 -0.041831 
311 1 311 0.43972 1.00044 0 0.738671 
312 1 312 0.48 0 0 0 
313 1 313 0.479997 0.0399912 0 -0.352996 
314 1 314 0.47999 0.0799841 0 -0.752228 
315 1 315 0.479976 0.119982 0 -1.13857 
316 1 316 0.479945 0.159987 0 -1.32813 
317 1 317 0.479904 0.199996 0 -0.956976 
318 1 318 0.47985 0.240007 0 -0.551987 
319 1 319 0.479799 0.280021 0 -0.132439 
320 1 320 0.47976 0.320035 0 0.290814 
321 1 321 0.479734 0.360054 0 0.652336 
322 1 322 0.47971 0.40007 0 1.30977 
323 1 323 0.479687 0.44009 0 1.74649 
324 1 324 0.479661 0.48011 0 1.83983 
325 1 325 0.479628 0.520134 0 1.40847 
326 1 326 0.479603 0.560158 0 0.978117 
327 1 327 0.479576 0.600183 0 0.726851 
328 1 328 0.479558 0.640209 0 0.732636 
329 1 329 0.479544 0.680235 0 1.20415 
330 1 330 0.479536 0.720261 0 1.86437 
331 1 331 0.47953 0.760285 0 2.56647 
332 1 332 0.479538 0.800309 0 2.73784 
333 1 333 0.479555 0.840328 0 2.36557 
334 1 334 0.479581 0.880351 0 1.33091 
335 1 335 0.479617 0.920369 0 0.172188 
336 1 336 0.479658 0.960389 0 0.127613 
337 1 337 0.479684 1.00041 0 0.507567 
338 1 338 0.52 0 0 0 
339 1 339 0.519996 0.0399913 0 -0.572968 
340 1 340 0.519983 0.0799864 0 -0.781591 
341 1 341 0.519959 0.119991 0 -0.906576 
342 1 342 0.519924 0.160001 0 -1.16404 
343 1 343 0.51988 0.200017 0 -0.991086 
344 1 344 0.519829 0.240032 0 -0.475433 
345 1 345 0.519779 0.280048 0 0.281363 
346 1 346 0.519737 0.320062 0 0.820259 
347 1 347 0.51971 0.360078 0 1.11727 
348 1 348 0.519686 0.400096 0 1.58384 
349 1 349 0.519664 0.440115 0 1.78429 
350 1 350 0.519636 0.480133 0 1.74427 
351 1 351 0.519604 0.520154 0 1.25581 
352 1 352 0.51958 0.560175 0 0.705434 
353 1 353 0.519558 0.600194 0 0.332198 
354 1 354 0.519544 0.640215 0 0.283057 
355 1 355 0.519528 0.680236 0 0.629616 
356 1 356 0.51952 0.720258 0 1.52241 
357 1 357 0.519508 0.76028 0 2.29176 
358 1 358 0.519519 0.800299 0 2.48174 
359 1 359 0.519533 0.840314 0 2.47368 
360 1 360 0.519554 0.880332 0 1.4805 
361 1 361 0.51959 0.920345 0 0.569076 
362 1 362 0.519622 0.960365 0 0.14014 
363 1 363 0.519645 1.00038 0 -0.175185 
364 1 364 0.56 0 0 0 
365 1 365 0.559987 0.0399912 0 -0.747211 
366 1 366 0.559968 0.0799898 0 -0.772063 
367 1 367 0.559937 0.119999 0 -0.584199 
368 1 368 0.559898 0.160013 0 -0.866534 
369 1 369 0.559853 0.200032 0 -0.885 
370 1 370 0.559804 0.24005 0 -0.351419 
371 1 371 0.559758 0.280064 0 0.57991 
372 1 372 0.559717 0.320077 0 1.21165 
373 1 373 0.559688 0.360092 0 1.38222 
374 1 374 0.559664 0.400107 0 1.61379 
375 1 375 0.559641 0.440125 0 1.69905 
376 1 376 0.559612 0.480142 0 1.63594 
377 1 377 0.55958 0.52016 0 1.21349 
378 1 378 0.559555 0.560178 0 0.675753 
379 1 379 0.559533 0.600195 0 0.244523 
380 1 380 0.559515 0.640213 0 0.120348 
381 1 381 0.559497 0.680232 0 0.298063 
382 1 382 0.559491 0.72025 0 1.24082 
383 1 383 0.55948 0.760269 0 1.90095 
384 1 384 0.559495 0.800284 0 2.05079 
385 1 385 0.559505 0.840298 0 2.25482 
386 1 386 0.559526 0.880315 0 1.43907 
387 1 387 0.559558 0.920328 0 0.925491 
388 1 388 0.55958 0.960351 0 -0.019707 
389 1 389 0.559605 1.00037 0 -1.07882 
390 1 390 0.6 0 0 0 
391 1 391 0.59998 0.0399907 0 -0.778984 
392 1 392 0.59995 0.0799922 0 -0.610892 
393 1 393 0.599911 0.120002 0 -0.159436 
394 1 394 0.599868 0.160019 0 -0.400688 
395 1 395 0.599825 0.200038 0 -0.665001 
396 1 396 0.599781 0.240055 0 -0.203145 
397 1 397 0.599739 0.280068 0 0.787952 
398 1 398 0.599702 0.320077 0 1.37353 
399 1 399 0.59967 0.360087 0 1.49703 
400 1 400 0.599643 0.4001 0 1.60986 
401 1 401 0.599619 0.440114 0 1.57859 
402 1 402 0.599592 0.480131 0 1.4925 
403 1 403 0.599563 0.520147 0 1.25896 
404 1 404 0.59954 0.560163 0 0.878417 
405 1 405 0.599524 0.600179 0 0.428467 
406 1 406 0.599508 0.640195 0 0.215095 
407 1 407 0.599489 0.680213 0 0.182849 
408 1 408 0.59948 0.720232 0 0.963101 
409 1 409 0.599465 0.760249 0 1.40661 
410 1 410 0.599478 0.800264 0 1.50489 
411 1 411 0.599482 0.84028 0 1.79008 
412 1 412 0.599499 0.880297 0 1.23244 
413 1 413 0.599524 0.920315 0 0.982776 
414 1 414 0.599541 0.960339 0 -0.530395 
415 1 415 0.599572 1.00035 0 -2.12437 
416 1 416 0.64 0 0 0 
417 1 417 0.639966 0.039991 0 -0.690229 
418 1 418 0.639928 0.0799926 0 -0.396748 
419 1 419 0.639882 0.120003 0 0.178767 
420 1 420 0.639838 0.160018 0 0.0235022 
421 1 421 0.639796 0.200035 0 -0.36281 
422 1 422 0.639758 0.240048 0 0.0179469 
423 1 423 0.639723 0.280058 0 0.974378 
424 1 424 0.639687 0.320063 0 1.46759 
425 1 425 0.639653 0.360068 0 1.55151 
426 1 426 0.639626 0.400077 0 1.53246 
427 1 427 0.6396 0.440087 0 1.41745 
428 1 428 0.63957 0.480104 0 1.4164 
429 1 429 0.639542 0.520119 0 1.37333 
430 1 430 0.639519 0.560136 0 1.1429 
431 1 431 0.639498 0.600153 0 0.738369 
432 1 432 0.639478 0.64017 0 0.435886 
433 1 433 0.639458 0.680189 0 0.164726 
434 1 434 0.639448 0.720206 0 0.589896 
435 1 435 0.639436 0.760223 0 0.730632 
436 1 436 0.639447 0.800239 0 0.712422 
437 1 437 0.639447 0.840258 0 0.928682 
438 1 438 0.639464 0.880276 0 0.734944 
439 1 439 0.639482 0.920298 0 0.661678 
440 1 440 0.639502 0.960322 0 -1.17834 
441 1 441 0.639541 1.00034 0 -2.88027 
442 1 442 0.68 0 0 0 
443 1 443 0.679956 0.0399908 0 -0.473297 
444 1 444 0.679907 0.0799923 0 -0.180949 
445 1 445 0.679855 0.12 0 0.406376 
446 1 446 0.679809 0.160011 0 0.390384 
447 1 447 0.67977 0.200022 0 -0.00188083 
448 1 448 0.679738 0.240031 0 0.277633 
449 1 449 0.679708 0.280036 0 1.07615 
450 1 450 0.679677 0.320036 0 1.54153 
451 1 451 0.679642 0.360036 0 1.67688 
452 1 452 0.67961 0.400041 0 1.52437 
453 1 453 0.67958 0.440049 0 1.34928 
454 1 454 0.679551 0.480065 0 1.42002 
455 1 455 0.679524 0.520079 0 1.51634 
456 1 456 0.679503 0.560097 0 1.44377 
457 1 457 0.679486 0.600116 0 1.08588 
458 1 458 0.679468 0.640135 0 0.680886 
459 1 459 0.679446 0.680154 0 0.205959 
460 1 460 0.679432 0.720173 0 0.171473 
461 1 461 0.679419 0.760189 0 0.00852422 
462 1 462 0.679421 0.800206 0 -0.157665 
463 1 463 0.679416 0.840226 0 -0.171128 
464 1 464 0.67943 0.880247 0 -0.026275 
465 1 465 0.67944 0.92027 0 -0.0351663 
466 1 466 0.679467 0.960293 0 -1.91326 
467 1 467 0.679515 1.00031 0 -3.33853 
468 1 468 0.72 0 0 0 
469 1 469 0.719943 0.0399911 0 -0.0911259 
470 1 470 0.719885 0.0799922 0 0.128825 
471 1 471 0.719832 0.119995 0 0.490064 
472 1 472 0.719785 0.160001 0 0.590613 
473 1 473 0.719747 0.200006 0 0.354187 
474 1 474 0.719721 0.240009 0 0.627575 
475 1 475 0.719696 0.280009 0 1.21855 
476 1 476 0.719668 0.320005 0 1.55184 
477 1 477 0.719631 0.360002 0 1.76763 
478 1 478 0.719596 0.400005 0 1.60597 
479 1 479 0.719561 0.440011 0 1.41274 
480 1 480 0.719527 0.480026 0 1.48485 
481 1 481 0.719498 0.520041 0 1.63754 
482 1 482 0.719473 0.56006 0 1.68028 
483 1 483 0.719448 0.60008 0 1.29668 
484 1 484 0.719426 0.640101 0 0.785766 
485 1 485 0.719404 0.68012 0 0.229266 
486 1 486 0.719393 0.720137 0 -0.230944 
487 1 487 0.719384 0.760151 0 -0.662684 
488 1 488 0.719382 0.800167 0 -0.984317 
489 1 489 0.719377 0.840185 0 -1.26496 
490 1 490 0.71939 0.880205 0 -0.864361 
491 1 491 0.719396 0.920227 0 -0.903959 
492 1 492 0.719431 0.960247 0 -2.49963 
493 1 493 0.719485 1.00026 0 -3.35321 
494 1 494 0.76 0 0 0 
495 1 495 0.759933 0.0399912 0 0.304353 
496 1 496 0.759868 0.0799891 0 0.409502 
497 1 497 0.759811 0.119989 0 0.486535 
498 1 498 0.759765 0.159989 0 0.71672 
499 1 499 0.75973 0.199987 0 0.740203 
500 1 500 0.759707 0.239985 0 1.02459 
501 1 501 0.759686 0.27998 0 1.39031 
502 1 502 0.759661 0.319975 0 1.62995 
503 1 503 0.759623 0.35997 0 1.9182 
504 1 504 0.759583 0.399971 0 1.7274 
505 1 505 0.75954 0.439976 0 1.49674 
506 1 506 0.759502 0.47999 0 1.53832 
507 1 507 0.759471 0.520006 0 1.66461 
508 1 508 0.759448 0.560025 0 1.77013 
509 1 509 0.759425 0.600045 0 1.46665 
510 1 510 0.759407 0.640064 0 0.919026 
511 1 511 0.759386 0.680082 0 0.239353 
512 1 512 0.759372 0.720097 0 -0.632528 
513 1 513 0.759364 0.760108 0 -1.27859 
514 1 514 0.759353 0.800122 0 -1.74321 
515 1 515 0.759346 0.840137 0 -2.24372 
516 1 516 0.759355 0.880154 0 -1.68837 
517 1 517 0.759357 0.920173 0 -1.77544 
518 1 518 0.759397 0.96019 0 -2.84268 
519 1 519 0.75945 1.00021 0 -3.01434 
520 1 520 0.8 0 0 0 
521 1 521 0.799922 0.0399915 0 0.743396 
522 1 522 0.799853 0.0799877 0 0.707974 
523 1 523 0.799797 0.119984 0 0.527631 
524 1 524 0.799752 0.15998 0 0.894663 
525 1 525 0.799717 0.199972 0 1.16447 
526 1 526 0.799696 0.239965 0 1.45067 
527 1 527 0.799676 0.279958 0 1.57059 
528 1 528 0.799651 0.319953 0 1.72001 
529 1 529 0.799611 0.359949 0 2.06579 
530 1 530 0.799567 0.39995 0 1.84297 
531 1 531 0.799517 0.439955 0 1.58736 
532 1 532 0.799474 0.479967 0 1.60062 
533 1 533 0.799437 0.519982 0 1.65512 
534 1 534 0.799407 0.559999 0 1.67576 
535 1 535 0.799376 0.600017 0 1.33876 
536 1 536 0.799355 0.640035 0 0.764099 
537 1 537 0.799338 0.680048 0 0.072834 
538 1 538 0.799329 0.720058 0 -1.02563 
539 1 539 0.799327 0.760064 0 -1.81675 
540 1 540 0.799315 0.800074 0 -2.37397 
541 1 541 0.79931 0.840084 0 -2.99834 
542 1 542 0.799317 0.880098 0 -2.46082 
543 1 543 0.799319 0.920113 0 -2.59684 
544 1 544 0.79936 0.960128 0 -2.99295 
545 1 545 0.799407 1.00015 0 -2.52559 
546 1 546 0.84 0 0 0 
547 1 547 0.839917 0.0399898 0 1.16795 
548 1 548 0.839842 0.0799841 0 1.06148 
549 1 549 0.839785 0.119977 0 0.618535 
550 1 550 0.839742 0.15997 0 1.09216 
551 1 551 0.839709 0.19996 0 1.64078 
552 1 552 0.839688 0.239952 0 1.92846 
553 1 553 0.839666 0.279943 0 1.82196 
554 1 554 0.839641 0.319941 0 1.82904 
555 1 555 0.839599 0.359937 0 2.13427 
556 1 556 0.83955 0.399937 0 1.95963 
557 1 557 0.839494 0.439942 0 1.74731 
558 1 558 0.839446 0.479949 0 1.65157 
559 1 559 0.839407 0.519961 0 1.56224 
560 1 560 0.839377 0.559974 0 1.48418 
561 1 561 0.83935 0.599988 0 1.12748 
562 1 562 0.839334 0.640002 0 0.508493 
563 1 563 0.83932 0.68001 0 -0.222643 
564 1 564 0.83931 0.720018 0 -1.46581 
565 1 565 0.839307 0.760021 0 -2.35157 
566 1 566 0.839291 0.800028 0 -2.93129 
567 1 567 0.839284 0.840034 0 -3.6067 
568 1 568 0.839286 0.880046 0 -3.19463 
569 1 569 0.839286 0.920056 0 -3.26413 
570 1 570 0.839321 0.96007 0 -2.96825 
571 1 571 0.839356 1.00009 0 -2.03743 
572 1 572 0.88 0 0 0 
573 1 573 0.879909 0.03999 0 1.38784 
574 1 574 0.879834 0.079982 0 1.34023 
575 1 575 0.879778 0.119974 0 0.811424 
576 1 576 0.879737 0.159965 0 1.32613 
577 1 577 0.879703 0.199954 0 2.09604 
578 1 578 0.879679 0.239946 0 2.40715 
579 1 579 0.879654 0.279938 0 2.13795 
580 1 580 0.879626 0.319937 0 2.03144 
581 1 581 0.879583 0.359935 0 2.18966 
582 1 582 0.879532 0.399936 0 1.98054 
583 1 583 0.879471 0.439938 0 1.80156 
584 1 584 0.879419 0.47994 0 1.61449 
585 1 585 0.879373 0.519947 0 1.3955 
586 1 586 0.879335 0.559955 0 1.16264 
587 1 587 0.8793 0.599963 0 0.763553 
588 1 588 0.87928 0.639972 0 0.153267 
589 1 589 0.879271 0.679976 0 -0.581091 
590 1 590 0.879267 0.719979 0 -1.87269 
591 1 591 0.879268 0.75998 0 -2.82415 
592 1 592 0.879255 0.799985 0 -3.39912 
593 1 593 0.87925 0.839989 0 -4.0755 
594 1 594 0.87925 0.879999 0 -3.86879 
595 1 595 0.879253 0.920008 0 -3.8137 
596 1 596 0.879279 0.960022 0 -2.90469 
597 1 597 0.879302 1.00004 0 -1.69481 
598 1 598 0.92 0 0 0 
599 1 599 0.919907 0.039989 0 1.45163 
600 1 600 0.91983 0.0799786 0 1.50892 
601 1 601 0.919771 0.119969 0 1.06913 
602 1 602 0.91973 0.15996 0 1.59639 
603 1 603 0.919698 0.199949 0 2.40942 
604 1 604 0.919671 0.239943 0 2.72088 
605 1 605 0.919641 0.279937 0 2.39725 
606 1 606 0.919611 0.319937 0 2.21922 
607 1 607 0.919567 0.359936 0 2.26951 
608 1 608 0.919514 0.399935 0 2.09854 
609 1 609 0.919451 0.439934 0 1.956 
610 1 610 0.919397 0.47993 0 1.65368 
611 1 611 0.919347 0.519931 0 1.30748 
612 1 612 0.919308 0.559931 0 0.900613 
613 1 613 0.919278 0.599934 0 0.410152 
614 1 614 0.919264 0.639937 0 -0.215953 
615 1 615 0.919256 0.679938 0 -0.932477 
616 1 616 0.919248 0.719942 0 -2.15362 
617 1 617 0.919246 0.759943 0 -3.1356 
618 1 618 0.919232 0.79995 0 -3.70038 
619 1 619 0.919223 0.839954 0 -4.35053 
620 1 620 0.91922 0.879963 0 -4.42692 
621 1 621 0.919222 0.919972 0 -4.29025 
622 1 622 0.919236 0.959986 0 -2.95768 
623 1 623 0.919247 1.00001 0 -1.65557 
624 1 624 0.96 0 0 0 
625 1 625 0.959903 0.0399882 0 1.34452 
626 1 626 0.959826 0.0799765 0 1.52454 
627 1 627 0.959767 0.119966 0 1.24219 
628 1 628 0.959725 0.159957 0 1.7622 
629 1 629 0.95969 0.199947 0 2.55818 
630 1 630 0.95966 0.239942 0 2.89683 
631 1 631 0.959626 0.279937 0 2.67245 
632 1 632 0.959591 0.319938 0 2.48061 
633 1 633 0.959545 0.359938 0 2.35793 
634 1 634 0.959494 0.399936 0 2.2054 
635 1 635 0.959432 0.439932 0 2.13462 
636 1 636 0.959375 0.479924 0 1.72874 
637 1 637 0.959319 0.519918 0 1.24166 
638 1 638 0.959272 0.559913 0 0.693194 
639 1 639 0.959234 0.59991 0 0.142964 
640 1 640 0.959213 0.639908 0 -0.484607 
641 1 641 0.959206 0.679906 0 -1.1575 
642 1 642 0.959202 0.719909 0 -2.24171 
643 1 643 0.959201 0.759912 0 -3.24259 
644 1 644 0.959191 0.799919 0 -3.81318 
645 1 645 0.959186 0.839926 0 -4.43922 
646 1 646 0.959182 0.879936 0 -4.77245 
647 1 647 0.959185 0.919947 0 -4.55326 
648 1 648 0.959191 0.959963 0 -3.03685 
649 1 649 0.959194 0.999984 0 -1.82943 
650 1 650 1 0 0 0 
651 1 651 0.999905 0.039986 0 0.936114 
652 1 652 0.999826 0.0799716 0 1.30629 
653 1 653 0.999762 0.119959 0 1.36806 
654 1 654 0.999719 0.159949 0 1.87613 
655 1 655 0.999682 0.199941 0 2.5895 
656 1 656 0.999649 0.239935 0 2.98308 
657 1 657 0.999608 0.279931 0 2.93385 
658 1 658 0.999571 0.31993 0 2.80696 
659 1 659 0.999525 0.35993 0 2.58062 
660 1 660 0.999475 0.399928 0 2.40998 
661 1 661 0.999414 0.439922 0 2.36023 
662 1 662 0.999357 0.479911 0 1.8986 
663 1 663 0.9993 0.519901 0 1.29208 
664 1 664 0.999254 0.559892 0 0.570643 
665 1 665 0.999221 0.599884 0 -0.0812659 
666 1 666 0.999202 0.639879 0 -0.710875 
667 1 667 0.999193 0.679877 0 -1.32152 
668 1 668 0.999182 0.719881 0 -2.23589 
669 1 669 0.999173 0.759887 0 -3.2047 
670 1 670 0.999162 0.799897 0 -3.75138 
671 1 671 0.999153 0.839906 0 -4.34971 
672 1 672 0.999146 0.879918 0 -4.9242 
673 1 673 0.999147 0.91993 0 -4.75313 
674 1 674 0.999145 0.959947 0 -3.30906 
675 1 675 0.999143 0.999968 0 -2.29486 
676 1 676 1.04 0 0 0 
677 1 677 1.0399 0.0399844 0 0.429939 
678 1 678 1.03983 0.0799673 0 1.02225 
679 1 679 1.03976 0.119952 0 1.51995 
680 1 680 1.03971 0.15994 0 2.0009 
681 1 681 1.03967 0.199931 0 2.51582 
682 1 682 1.03963 0.239924 0 2.95486 
683 1 683 1.03959 0.279919 0 3.17159 
684 1 684 1.03955 0.319917 0 3.1697 
685 1 685 1.0395 0.359915 0 2.91858 
686 1 686 1.03945 0.399913 0 2.73752 
687 1 687 1.03939 0.439906 0 2.63627 
688 1 688 1.03934 0.479897 0 2.07276 
689 1 689 1.03928 0.519886 0 1.29314 
690 1 690 1.03922 0.559876 0 0.388488 
691 1 691 1.03918 0.599866 0 -0.367415 
692 1 692 1.03915 0.63986 0 -1.03222 
693 1 693 1.03914 0.679857 0 -1.58241 
694 1 694 1.03913 0.719861 0 -2.26624 
695 1 695 1.03912 0.759869 0 -3.13382 
696 1 696 1.03911 0.79988 0 -3.63748 
697 1 697 1.03911 0.839891 0 -4.15717 
698 1 698 1.0391 0.879904 0 -4.85882 
699 1 699 1.0391 0.919918 0 -4.79971 
700 1 700 1.0391 0.959936 0 -3.56617 
701 1 701 1.0391 0.999956 0 -2.75466 
702 1 702 1.08 0 0 0 
703 1 703 1.07991 0.0399809 0 -0.014927 
704 1 704 1.07983 0.0799598 0 0.760398 
705 1 705 1.07976 0.119942 0 1.6454 
706 1 706 1.07971 0.159927 0 2.10257 
707 1 707 1.07966 0.199915 0 2.41678 
708 1 708 1.07962 0.239905 0 2.91568 
709 1 709 1.07957 0.279898 0 3.40984 
710 1 710 1.07952 0.319892 0 3.51748 
711 1 711 1.07947 0.359889 0 3.26093 
712 1 712 1.07943 0.399886 0 3.05556 
713 1 713 1.07937 0.43988 0 2.85769 
714 1 714 1.07932 0.479873 0 2.17333 
715 1 715 1.07926 0.519863 0 1.19774 
716 1 716 1.07921 0.559854 0 0.130816 
717 1 717 1.07918 0.599845 0 -0.696261 
718 1 718 1.07915 0.63984 0 -1.39904 
719 1 719 1.07913 0.679839 0 -1.90917 
720 1 720 1.07911 0.719845 0 -2.37588 
721 1 721 1.07909 0.759855 0 -3.12217 
722 1 722 1.07908 0.799868 0 -3.57151 
723 1 723 1.07907 0.839879 0 -3.98216 
724 1 724 1.07906 0.879893 0 -4.70279 
725 1 725 1.07906 0.919908 0 -4.76057 
726 1 726 1.07905 0.959926 0 -3.89925 
727 1 727 1.07905 0.999946 0 -3.37447 
728 1 728 1.12 0 0 0 
729 1 729 1.11991 0.0399788 0 -0.363988 
730 1 730 1.11983 0.0799547 0 0.553392 
731 1 731 1.11976 0.119932 0 1.74692 
732 1 732 1.1197 0.159913 0 2.16638 
733 1 733 1.11965 0.199898 0 2.27917 
734 1 734 1.1196 0.239886 0 2.78224 
735 1 735 1.11955 0.279876 0 3.46622 
736 1 736 1.1195 0.319867 0 3.68607 
737 1 737 1.11944 0.359861 0 3.49222 
738 1 738 1.1194 0.399856 0 3.24819 
739 1 739 1.11935 0.439852 0 2.91033 
740 1 740 1.11929 0.479848 0 2.15334 
741 1 741 1.11923 0.51984 0 1.05802 
742 1 742 1.11918 0.559835 0 -0.175625 
743 1 743 1.11914 0.599828 0 -1.13156 
744 1 744 1.1191 0.639824 0 -1.89149 
745 1 745 1.11907 0.679825 0 -2.359 
746 1 746 1.11905 0.719831 0 -2.5987 
747 1 747 1.11903 0.759842 0 -3.15988 
748 1 748 1.11902 0.799854 0 -3.53303 
749 1 749 1.11901 0.839867 0 -3.86912 
750 1 750 1.11901 0.879882 0 -4.5585 
751 1 751 1.119 0.919897 0 -4.67592 
752 1 752 1.119 0.959917 0 -4.29519 
753 1 753 1.119 0.999939 0 -4.16355 
754 1 754 1.16 0 0 0 
755 1 755 1.15992 0.0399749 0 -0.426878 
756 1 756 1.15984 0.079948 0 0.510145 
757 1 757 1.15976 0.119922 0 1.73879 
758 1 758 1.1597 0.159899 0 2.04941 
759 1 759 1.15964 0.199882 0 1.97217 
760 1 760 1.15959 0.239866 0 2.38525 
761 1 761 1.15953 0.279853 0 3.16287 
762 1 762 1.15947 0.31984 0 3.54065 
763 1 763 1.15942 0.359831 0 3.51641 
764 1 764 1.15937 0.399825 0 3.3068 
765 1 765 1.15932 0.439819 0 2.83288 
766 1 766 1.15927 0.479817 0 1.98504 
767 1 767 1.15921 0.51981 0 0.835045 
768 1 768 1.15917 0.559807 0 -0.454073 
769 1 769 1.15913 0.599802 0 -1.44103 
770 1 770 1.15909 0.639801 0 -2.21821 
771 1 771 1.15906 0.679806 0 -2.71733 
772 1 772 1.15903 0.719814 0 -2.86423 
773 1 773 1.159 0.759826 0 -3.33001 
774 1 774 1.15898 0.79984 0 -3.6557 
775 1 775 1.15897 0.839853 0 -3.88913 
776 1 776 1.15895 0.87987 0 -4.54012 
777 1 777 1.15895 0.919887 0 -4.70267 
778 1 778 1.15894 0.95991 0 -4.65297 
779 1 779 1.15894 0.999934 0 -4.80535 
780 1 780 1.2 0 0 0 
781 1 781 1.19992 0.0399725 0 -0.259533 
782 1 782 1.19984 0.0799438 0 0.58076 
783 1 783 1.19976 0.119915 0 1.56559 
784 1 784 1.19969 0.159888 0 1.63847 
785 1 785 1.19963 0.199868 0 1.38606 