ITEM: TIMESTEP
0
ITEM: NUMBER OF ATOMS
7127
ITEM: BOX BOUNDS sm sm sm
0 4
0 2
0 0
ITEM: ATOMS id type tag x y z vx 
0 1 0 0 0 0 0 
1 1 1 0 0.04 0 0 
2 1 2 0 0.08 0 0 
3 1 3 0 0.12 0 0 
4 1 4 0 0.16 0 0 
5 1 5 0 0.2 0 0 
6 1 6 0 0.24 0 0 
7 1 7 0 0.28 0 0 
8 1 8 0 0.32 0 0 
9 1 9 0 0.36 0 0 
10 1 10 0 0.4 0 0 
11 1 11 0 0.44 0 0 
12 1 12 0 0.48 0 0 
13 1 13 0 0.52 0 0 
14 1 14 0 0.56 0 0 
15 1 15 0 0.6 0 0 
16 1 16 0 0.64 0 0 
17 1 17 0 0.68 0 0 
18 1 18 0 0.72 0 0 
19 1 19 0 0.76 0 0 
20 1 20 0 0.8 0 0 
21 1 21 0 0.84 0 0 
22 1 22 0 0.88 0 0 
23 1 23 0 0.92 0 0 
24 1 24 0 0.96 0 0 
25 1 25 0 1 0 0 
26 1 26 0.04 0 0 0 
27 1 27 0.0399925 0.0399933 0 -0.209281 
28 1 28 0.0399882 0.0799911 0 -0.219368 
29 1 29 0.0399848 0.119991 0 -0.126457 
30 1 30 0.0399827 0.15999 0 0.00894988 
31 1 31 0.0399831 0.199989 0 0.0353754 
32 1 32 0.039983 0.239986 0 -0.0124973 
33 1 33 0.0399832 0.279984 0 -0.062143 
34 1 34 0.0399827 0.31998 0 -0.100684 
35 1 35 0.0399824 0.359978 0 -0.156142 
36 1 36 0.0399817 0.399976 0 -0.211377 
37 1 37 0.0399816 0.439977 0 -0.245036 
38 1 38 0.0399808 0.479977 0 -0.241471 
39 1 39 0.0399806 0.51998 0 -0.238393 
40 1 40 0.0399792 0.559982 0 -0.179846 
41 1 41 0.0399777 0.599987 0 -0.136494 
42 1 42 0.0399761 0.639993 0 -0.0663241 
43 1 43 0.0399744 0.68 0 -0.0132519 
44 1 44 0.0399735 0.720008 0 0.0265945 
45 1 45 0.039971 0.760015 0 -0.0480646 
46 1 46 0.0399736 0.800019 0 -0.0860434 
47 1 47 0.0399693 0.840024 0 0.0612345 
48 1 48 0.0399672 0.880029 0 -0.13315 
49 1 49 0.0399655 0.920035 0 -0.0495278 
50 1 50 0.0399591 0.960047 0 -0.181301 
51 1 51 0.0399179 1.00008 0 -0.602657 
52 1 52 0.08 0 0 0 
53 1 53 0.0799866 0.0399906 0 -0.330188 
54 1 54 0.0799763 0.0799833 0 -0.290283 
55 1 55 0.0799704 0.119981 0 -0.137817 
56 1 56 0.0799676 0.159977 0 -0.0297393 
57 1 57 0.0799678 0.199976 0 -0.107694 
58 1 58 0.0799683 0.239971 0 -0.181112 
59 1 59 0.079967 0.279967 0 -0.200636 
60 1 60 0.0799673 0.319962 0 -0.247782 
61 1 61 0.0799638 0.35996 0 -0.282307 
62 1 62 0.0799638 0.399957 0 -0.283671 
63 1 63 0.0799597 0.439958 0 -0.28953 
64 1 64 0.0799606 0.479958 0 -0.303857 
65 1 65 0.0799557 0.519963 0 -0.344102 
66 1 66 0.0799562 0.559967 0 -0.340684 
67 1 67 0.0799493 0.599976 0 -0.319958 
68 1 68 0.0799487 0.639986 0 -0.248001 
69 1 69 0.0799402 0.679999 0 -0.148404 
70 1 70 0.079941 0.720011 0 -0.0927683 
71 1 71 0.0799373 0.760025 0 -0.0718708 
72 1 72 0.0799388 0.800037 0 -0.202204 
73 1 73 0.0799364 0.840049 0 -0.129513 
74 1 74 0.0799292 0.880062 0 -0.200905 
75 1 75 0.079927 0.920077 0 -0.178813 
76 1 76 0.0799016 0.960106 0 -0.545049 
77 1 77 0.0798791 1.00012 0 -1.14136 
78 1 78 0.12 0 0 0 
79 1 79 0.119983 0.0399876 0 -0.445114 
80 1 80 0.119968 0.0799779 0 -0.390374 
81 1 81 0.119959 0.119971 0 -0.19193 
82 1 82 0.119954 0.159965 0 -0.131666 
83 1 83 0.119952 0.19996 0 -0.240622 
84 1 84 0.119952 0.239955 0 -0.277337 
85 1 85 0.11995 0.27995 0 -0.273218 
86 1 86 0.119949 0.319946 0 -0.334306 
87 1 87 0.119944 0.359943 0 -0.341615 
88 1 88 0.119943 0.399942 0 -0.298068 
89 1 89 0.119938 0.439942 0 -0.266384 
90 1 90 0.119936 0.479944 0 -0.3092 
91 1 91 0.119931 0.519949 0 -0.405187 
92 1 92 0.119927 0.559957 0 -0.502854 
93 1 93 0.119918 0.599966 0 -0.514009 
94 1 94 0.119911 0.639981 0 -0.439897 
95 1 95 0.119906 0.679995 0 -0.31653 
96 1 96 0.119901 0.720015 0 -0.259145 
97 1 97 0.119901 0.760031 0 -0.205796 
98 1 98 0.119898 0.800052 0 -0.352651 
99 1 99 0.119897 0.840071 0 -0.467542 
100 1 100 0.119889 0.880092 0 -0.431887 
101 1 101 0.119876 0.920119 0 -0.425973 
102 1 102 0.119862 0.960137 0 -0.907072 
103 1 103 0.119844 1.00016 0 -1.43103 
104 1 104 0.16 0 0 0 
105 1 105 0.159979 0.0399858 0 -0.509119 
106 1 106 0.159961 0.0799729 0 -0.475604 
107 1 107 0.159949 0.119963 0 -0.238384 
108 1 108 0.159941 0.159954 0 -0.190806 
109 1 109 0.159938 0.199947 0 -0.284626 
110 1 110 0.159936 0.239941 0 -0.317917 
111 1 111 0.159932 0.279935 0 -0.312823 
112 1 112 0.159929 0.319931 0 -0.343595 
113 1 113 0.159923 0.359929 0 -0.31608 
114 1 114 0.159919 0.399928 0 -0.245138 
115 1 115 0.159912 0.43993 0 -0.206302 
116 1 116 0.159908 0.479933 0 -0.27623 
117 1 117 0.159901 0.51994 0 -0.438134 
118 1 118 0.159894 0.559948 0 -0.6307 
119 1 119 0.159884 0.599961 0 -0.708084 
120 1 120 0.159874 0.639976 0 -0.643274 
121 1 121 0.159863 0.679995 0 -0.527051 
122 1 122 0.159857 0.720013 0 -0.469373 
123 1 123 0.159855 0.760037 0 -0.44525 
124 1 124 0.159853 0.800058 0 -0.611518 
125 1 125 0.159849 0.840086 0 -0.755438 
126 1 126 0.159841 0.880111 0 -0.710643 
127 1 127 0.159832 0.920136 0 -0.781656 
128 1 128 0.159824 0.960161 0 -1.1854 
129 1 129 0.159816 1.00017 0 -1.50931 
130 1 130 0.2 0 0 0 
131 1 131 0.199977 0.039984 0 -0.506051 
132 1 132 0.199955 0.0799693 0 -0.502761 
133 1 133 0.199939 0.119956 0 -0.230546 
134 1 134 0.199929 0.159945 0 -0.218254 
135 1 135 0.199922 0.199935 0 -0.357891 
136 1 136 0.199918 0.239927 0 -0.404512 
137 1 137 0.199912 0.279922 0 -0.375273 
138 1 138 0.199906 0.319917 0 -0.335844 
139 1 139 0.199898 0.359916 0 -0.252828 
140 1 140 0.199893 0.399916 0 -0.125677 
141 1 141 0.199885 0.439919 0 -0.0671277 
142 1 142 0.199879 0.479923 0 -0.13787 
143 1 143 0.199869 0.519932 0 -0.336385 
144 1 144 0.199859 0.559943 0 -0.608544 
145 1 145 0.199843 0.599958 0 -0.798341 
146 1 146 0.199831 0.639974 0 -0.848029 
147 1 147 0.199821 0.679993 0 -0.782518 
148 1 148 0.199814 0.720015 0 -0.744877 
149 1 149 0.199809 0.760037 0 -0.728757 
150 1 150 0.199806 0.800064 0 -0.954581 
151 1 151 0.199803 0.840089 0 -1.13724 
152 1 152 0.199796 0.880119 0 -1.02075 
153 1 153 0.199787 0.920144 0 -1.10613 
154 1 154 0.199787 0.960165 0 -1.38976 
155 1 155 0.19979 1.00018 0 -1.52851 
156 1 156 0.24 0 0 0 
157 1 157 0.239974 0.0399822 0 -0.390721 
158 1 158 0.23995 0.079965 0 -0.394892 
159 1 159 0.239931 0.119949 0 -0.192102 
160 1 160 0.239917 0.159936 0 -0.300375 
161 1 161 0.239906 0.199924 0 -0.442965 
162 1 162 0.239898 0.239915 0 -0.432512 
163 1 163 0.239889 0.27991 0 -0.393429 
164 1 164 0.239881 0.319906 0 -0.307687 
165 1 165 0.239872 0.359906 0 -0.165804 
166 1 166 0.239864 0.399907 0 0.0245887 
167 1 167 0.239854 0.43991 0 0.149253 
168 1 168 0.239846 0.479917 0 0.0804584 
169 1 169 0.239832 0.519926 0 -0.181119 
170 1 170 0.239819 0.559938 0 -0.546846 
171 1 171 0.239805 0.599953 0 -0.826552 
172 1 172 0.23979 0.639969 0 -0.955807 
173 1 173 0.239774 0.679988 0 -0.957457 
174 1 174 0.239764 0.720007 0 -0.994069 
175 1 175 0.23976 0.760031 0 -1.02422 
176 1 176 0.239755 0.800057 0 -1.24886 
177 1 177 0.239751 0.840086 0 -1.49056 
178 1 178 0.239749 0.880113 0 -1.35734 
179 1 179 0.239746 0.92014 0 -1.35681 
180 1 180 0.239753 0.960162 0 -1.4688 
181 1 181 0.239758 1.00018 0 -1.44888 
182 1 182 0.28 0 0 0 
183 1 183 0.279972 0.0399789 0 -0.213766 
184 1 184 0.279945 0.0799603 0 -0.253314 
185 1 185 0.279922 0.119942 0 -0.186487 
186 1 186 0.279905 0.159927 0 -0.363732 
187 1 187 0.27989 0.199914 0 -0.493922 
188 1 188 0.279879 0.239904 0 -0.518794 
189 1 189 0.279866 0.279899 0 -0.481316 
190 1 190 0.279856 0.319895 0 -0.288745 
191 1 191 0.279844 0.359896 0 -0.0489088 
192 1 192 0.279835 0.399897 0 0.171963 
193 1 193 0.279823 0.439901 0 0.335443 
194 1 194 0.279811 0.479908 0 0.287094 
195 1 195 0.279796 0.519918 0 -0.00183349 
196 1 196 0.27978 0.55993 0 -0.419934 
197 1 197 0.27976 0.599947 0 -0.806386 
198 1 198 0.279745 0.639962 0 -1.02368 
199 1 199 0.279732 0.679981 0 -1.06955 
200 1 200 0.279723 0.719999 0 -1.17504 
201 1 201 0.279714 0.760022 0 -1.25288 
202 1 202 0.279709 0.800046 0 -1.41819 
203 1 203 0.279706 0.840074 0 -1.6459 
204 1 204 0.279705 0.880103 0 -1.54931 
205 1 205 0.279704 0.920127 0 -1.56649 
206 1 206 0.279716 0.96015 0 -1.62695 
207 1 207 0.27973 1.00017 0 -1.52995 
208 1 208 0.32 0 0 0 
209 1 209 0.319969 0.0399765 0 0.0414393 
210 1 210 0.319941 0.0799559 0 -0.0563601 
211 1 211 0.319915 0.119935 0 -0.186605 
212 1 212 0.319894 0.159919 0 -0.459927 
213 1 213 0.319875 0.199905 0 -0.627333 
214 1 214 0.319859 0.239895 0 -0.678619 
215 1 215 0.319842 0.279889 0 -0.57914 
216 1 216 0.319829 0.319885 0 -0.314569 
217 1 217 0.319815 0.359885 0 -0.0201592 
218 1 218 0.319803 0.399887 0 0.245619 
219 1 219 0.319789 0.439891 0 0.433609 
220 1 220 0.319774 0.479898 0 0.391756 
221 1 221 0.319755 0.519908 0 0.0996345 
222 1 222 0.319737 0.559921 0 -0.317344 
223 1 223 0.31972 0.599935 0 -0.75908 
224 1 224 0.319704 0.63995 0 -1.06414 
225 1 225 0.319686 0.679966 0 -1.11805 
226 1 226 0.319673 0.719984 0 -1.19115 
227 1 227 0.319666 0.760005 0 -1.30756 
228 1 228 0.319659 0.80003 0 -1.48241 
229 1 229 0.319654 0.840057 0 -1.75192 
230 1 230 0.319659 0.880083 0 -1.70791 
231 1 231 0.319664 0.920109 0 -1.72811 
232 1 232 0.319679 0.96013 0 -1.78345 
233 1 233 0.319695 1.00015 0 -1.65824 
234 1 234 0.36 0 0 0 
235 1 235 0.359966 0.0399745 0 0.330091 
236 1 236 0.359936 0.0799522 0 0.182357 
237 1 237 0.359907 0.119931 0 -0.179582 
238 1 238 0.359884 0.159913 0 -0.570917 
239 1 239 0.35986 0.199898 0 -0.768582 
240 1 240 0.35984 0.239886 0 -0.840501 
241 1 241 0.359819 0.279879 0 -0.71331 
242 1 242 0.359803 0.319875 0 -0.447567 
243 1 243 0.359786 0.359873 0 -0.148176 
244 1 244 0.359771 0.399874 0 0.146683 
245 1 245 0.359754 0.439878 0 0.336838 
246 1 246 0.359735 0.479884 0 0.322165 
247 1 247 0.359715 0.519894 0 0.0933768 
248 1 248 0.359695 0.559905 0 -0.284131 
249 1 249 0.359672 0.59992 0 -0.701588 
250 1 250 0.359656 0.639935 0 -1.00074 
251 1 251 0.359645 0.679952 0 -1.08527 
252 1 252 0.359634 0.719968 0 -1.13386 
253 1 253 0.359622 0.75999 0 -1.24959 
254 1 254 0.359614 0.800011 0 -1.41861 
255 1 255 0.359611 0.840036 0 -1.72862 
256 1 256 0.359615 0.880061 0 -1.81004 
257 1 257 0.359621 0.920083 0 -1.91388 
258 1 258 0.35964 0.960105 0 -2.0147 
259 1 259 0.359663 1.00012 0 -1.89146 
260 1 260 0.4 0 0 0 
261 1 261 0.399962 0.0399734 0 0.531405 
262 1 262 0.399931 0.0799503 0 0.353145 
263 1 263 0.399901 0.119929 0 -0.182499 
264 1 264 0.399875 0.159909 0 -0.659831 
265 1 265 0.399847 0.199893 0 -0.912394 
266 1 266 0.399823 0.23988 0 -1.05456 
267 1 267 0.399798 0.27987 0 -0.94074 
268 1 268 0.399777 0.319864 0 -0.655 
269 1 269 0.399757 0.35986 0 -0.335605 
270 1 270 0.399738 0.39986 0 -0.0491879 
271 1 271 0.399717 0.439863 0 0.113386 
272 1 272 0.399695 0.479868 0 0.11152 
273 1 273 0.399669 0.519877 0 -0.0449408 
274 1 274 0.399647 0.559889 0 -0.386008 
275 1 275 0.39963 0.599901 0 -0.737707 
276 1 276 0.399614 0.639914 0 -0.9214 
277 1 277 0.399595 0.67993 0 -0.998261 
278 1 278 0.399582 0.719946 0 -1.03571 
279 1 279 0.399572 0.759966 0 -1.14681 
280 1 280 0.399564 0.799987 0 -1.32904 
281 1 281 0.399558 0.84001 0 -1.70019 
282 1 282 0.399568 0.880032 0 -1.91786 
283 1 283 0.39958 0.920054 0 -2.0848 
284 1 284 0.3996 0.960072 0 -2.20447 
285 1 285 0.399623 1.00009 0 -2.08773 
286 1 286 0.44 0 0 0 
287 1 287 0.43996 0.0399736 0 0.627434 
288 1 288 0.439927 0.0799497 0 0.455496 
289 1 289 0.439894 0.119928 0 -0.171868 
290 1 290 0.439866 0.159907 0 -0.700965 
291 1 291 0.439834 0.199888 0 -0.997809 
292 1 292 0.439805 0.239873 0 -1.14554 
293 1 293 0.439777 0.27986 0 -1.02329 
294 1 294 0.439752 0.319851 0 -0.746592 
295 1 295 0.439727 0.359845 0 -0.460557 
296 1 296 0.439705 0.399842 0 -0.274201 
297 1 297 0.439679 0.439845 0 -0.179708 
298 1 298 0.439652 0.479849 0 -0.20791 
299 1 299 0.439627 0.519857 0 -0.275282 
300 1 300 0.439602 0.559867 0 -0.474675 
301 1 301 0.439578 0.59988 0 -0.738199 
302 1 302 0.439563 0.639893 0 -0.822761 
303 1 303 0.439552 0.67991 0 -0.839635 
304 1 304 0.439542 0.719925 0 -0.80778 
305 1 305 0.439526 0.759944 0 -0.933494 
306 1 306 0.439519 0.799962 0 -1.16346 
307 1 307 0.439515 0.839982 0 -1.57355 
308 1 308 0.439524 0.88 0 -1.94367 
309 1 309 0.439534 0.92002 0 -2.19486 
310 1 310 0.439557 0.960039 0 -2.37146 
311 1 311 0.439585 1.00006 0 -2.31472 
312 1 312 0.48 0 0 0 
313 1 313 0.479956 0.0399743 0 0.477766 
314 1 314 0.479922 0.0799488 0 0.334387 
315 1 315 0.479887 0.119926 0 -0.202932 
316 1 316 0.479855 0.159904 0 -0.636766 
317 1 317 0.47982 0.199884 0 -0.909048 
318 1 318 0.479789 0.239867 0 -1.03169 
319 1 319 0.479756 0.279851 0 -0.911313 
320 1 320 0.479728 0.319839 0 -0.69435 
321 1 321 0.479699 0.359831 0 -0.474718 
322 1 322 0.479669 0.399828 0 -0.408091 
323 1 323 0.47964 0.439828 0 -0.396363 
324 1 324 0.47961 0.479832 0 -0.45392 
325 1 325 0.479578 0.519839 0 -0.492427 
326 1 326 0.479552 0.559846 0 -0.575528 
327 1 327 0.479534 0.599856 0 -0.711146 
328 1 328 0.479517 0.639867 0 -0.71055 
329 1 329 0.479497 0.67988 0 -0.702352 
330 1 330 0.479485 0.719895 0 -0.606083 
331 1 331 0.479473 0.759912 0 -0.717242 
332 1 332 0.479466 0.799929 0 -0.953592 
333 1 333 0.47946 0.839947 0 -1.35209 
334 1 334 0.479472 0.879964 0 -1.89568 
335 1 335 0.479489 0.919983 0 -2.26963 
336 1 336 0.479511 0.960001 0 -2.47794 
337 1 337 0.479538 1.00002 0 -2.47086 
338 1 338 0.52 0 0 0 
339 1 339 0.519956 0.0399744 0 0.222082 
340 1 340 0.519917 0.0799477 0 0.144955 
341 1 341 0.519879 0.119923 0 -0.212553 
342 1 342 0.519843 0.1599 0 -0.520346 
343 1 343 0.519804 0.199878 0 -0.731778 
344 1 344 0.51977 0.23986 0 -0.789025 
345 1 345 0.519735 0.279842 0 -0.648235 
346 1 346 0.519703 0.319829 0 -0.458059 
347 1 347 0.519669 0.359818 0 -0.287777 
348 1 348 0.519636 0.399814 0 -0.333822 
349 1 349 0.519601 0.439813 0 -0.427958 
350 1 350 0.519567 0.479815 0 -0.522329 
351 1 351 0.519537 0.519819 0 -0.545666 
352 1 352 0.519509 0.559823 0 -0.569538 
353 1 353 0.519482 0.599831 0 -0.581125 
354 1 354 0.519464 0.639841 0 -0.464712 
355 1 355 0.519453 0.679853 0 -0.434847 
356 1 356 0.519443 0.719866 0 -0.321466 
357 1 357 0.519425 0.759881 0 -0.445715 
358 1 358 0.51942 0.799896 0 -0.720292 
359 1 359 0.519417 0.839912 0 -1.13063 
360 1 360 0.519425 0.879928 0 -1.79779 
361 1 361 0.519439 0.919946 0 -2.23383 
362 1 362 0.519462 0.959966 0 -2.47001 
363 1 363 0.519491 0.999988 0 -2.53287 
364 1 364 0.56 0 0 0 
365 1 365 0.559953 0.0399733 0 -0.0920962 
366 1 366 0.559911 0.0799455 0 -0.102227 
367 1 367 0.55987 0.11992 0 -0.210528 
368 1 368 0.559829 0.159896 0 -0.334396 
369 1 369 0.559788 0.199873 0 -0.451181 
370 1 370 0.559751 0.239853 0 -0.420161 
371 1 371 0.559712 0.279835 0 -0.246433 
372 1 372 0.559677 0.319821 0 -0.0780735 
373 1 373 0.559639 0.35981 0 0.0188729 
374 1 374 0.559601 0.399804 0 -0.144694 
375 1 375 0.559564 0.439801 0 -0.310267 
376 1 376 0.559528 0.4798 0 -0.429037 
377 1 377 0.559493 0.519801 0 -0.439656 
378 1 378 0.559463 0.559803 0 -0.381 
379 1 379 0.559442 0.599806 0 -0.320628 
380 1 380 0.559421 0.639811 0 -0.191328 
381 1 381 0.559397 0.679819 0 -0.189678 
382 1 382 0.559383 0.719831 0 -0.113089 
383 1 383 0.559371 0.759845 0 -0.251056 
384 1 384 0.559365 0.799859 0 -0.536169 
385 1 385 0.559359 0.839875 0 -0.919785 
386 1 386 0.55937 0.879891 0 -1.63528 
387 1 387 0.559388 0.91991 0 -2.14171 
388 1 388 0.559408 0.959931 0 -2.44191 
389 1 389 0.559434 0.999957 0 -2.57397 
390 1 390 0.6 0 0 0 
391 1 391 0.599952 0.039971 0 -0.359485 
392 1 392 0.599905 0.0799427 0 -0.31642 
393 1 393 0.599859 0.119916 0 -0.186919 
394 1 394 0.599815 0.159892 0 -0.117185 
395 1 395 0.59977 0.199869 0 -0.129361 
396 1 396 0.599731 0.239849 0 -0.0382204 
397 1 397 0.59969 0.27983 0 0.124988 
398 1 398 0.599652 0.319815 0 0.232473 
399 1 399 0.59961 0.359803 0 0.289367 
400 1 400 0.59957 0.399795 0 0.124793 
401 1 401 0.599528 0.439789 0 -0.057328 
402 1 402 0.59949 0.479787 0 -0.189283 
403 1 403 0.599458 0.519784 0 -0.188874 
404 1 404 0.599427 0.559782 0 -0.072457 
405 1 405 0.599394 0.599782 0 -0.0209547 
406 1 406 0.599372 0.639786 0 0.0269448 
407 1 407 0.599357 0.679793 0 -0.0129032 
408 1 408 0.599344 0.719803 0 -0.016739 
409 1 409 0.599324 0.759814 0 -0.19217 
410 1 410 0.599318 0.799827 0 -0.461273 
411 1 411 0.599314 0.839841 0 -0.798825 
412 1 412 0.599319 0.879856 0 -1.48395 
413 1 413 0.59933 0.919877 0 -1.98313 
414 1 414 0.599351 0.9599 0 -2.27154 
415 1 415 0.599378 0.999927 0 -2.41776 
416 1 416 0.64 0 0 0 
417 1 417 0.639948 0.0399685 0 -0.425271 
418 1 418 0.639899 0.0799394 0 -0.318277 
419 1 419 0.639848 0.119913 0 -0.0671313 
420 1 420 0.6398 0.159889 0 0.0664857 
421 1 421 0.639753 0.199866 0 0.0989163 
422 1 422 0.639711 0.239846 0 0.21346 
423 1 423 0.639668 0.279827 0 0.360126 
424 1 424 0.639628 0.319812 0 0.447046 
425 1 425 0.639583 0.359799 0 0.490441 
426 1 426 0.639539 0.39979 0 0.350067 
427 1 427 0.639496 0.439782 0 0.178585 
428 1 428 0.639458 0.479776 0 0.0884763 
429 1 429 0.639419 0.51977 0 0.0921757 
430 1 430 0.639387 0.559766 0 0.173836 
431 1 431 0.63936 0.599762 0 0.196879 
432 1 432 0.639334 0.639761 0 0.196103 
433 1 433 0.639302 0.679764 0 0.077984 
434 1 434 0.639282 0.719772 0 -0.0984291 
435 1 435 0.639269 0.759782 0 -0.318986 
436 1 436 0.63926 0.799794 0 -0.540568 
437 1 437 0.639252 0.839808 0 -0.801297 
438 1 438 0.639258 0.879824 0 -1.35323 
439 1 439 0.639271 0.919845 0 -1.78536 
440 1 440 0.639288 0.95987 0 -2.04286 
441 1 441 0.63931 0.999901 0 -2.17816 
442 1 442 0.68 0 0 0 
443 1 443 0.679945 0.0399657 0 -0.360829 
444 1 444 0.679891 0.0799362 0 -0.235535 
445 1 445 0.679836 0.11991 0 0.0711069 
446 1 446 0.679786 0.159886 0 0.260098 
447 1 447 0.679737 0.199864 0 0.3321 
448 1 448 0.679692 0.239844 0 0.422072 
449 1 449 0.679648 0.279826 0 0.501431 
450 1 450 0.679605 0.319811 0 0.534149 
451 1 451 0.679557 0.359796 0 0.545384 
452 1 452 0.679513 0.399785 0 0.455282 
453 1 453 0.679466 0.439774 0 0.339448 
454 1 454 0.679425 0.479766 0 0.324873 
455 1 455 0.679389 0.519757 0 0.330249 
456 1 456 0.679355 0.55975 0 0.371172 
457 1 457 0.679314 0.599745 0 0.340696 
458 1 458 0.679286 0.639745 0 0.213535 
459 1 459 0.679264 0.679748 0 -0.0327817 
460 1 460 0.679245 0.719753 0 -0.351335 
461 1 461 0.679222 0.75976 0 -0.527034 
462 1 462 0.679211 0.79977 0 -0.64701 
463 1 463 0.679205 0.839783 0 -0.802018 
464 1 464 0.679203 0.879798 0 -1.14517 
465 1 465 0.679206 0.91982 0 -1.47066 
466 1 466 0.679222 0.959845 0 -1.69721 
467 1 467 0.679246 0.999877 0 -1.8156 
468 1 468 0.72 0 0 0 
469 1 469 0.719939 0.0399637 0 -0.114827 
470 1 470 0.719882 0.0799333 0 0.0266891 
471 1 471 0.719826 0.119906 0 0.288757 
472 1 472 0.719771 0.159882 0 0.453658 
473 1 473 0.719721 0.199861 0 0.528856 
474 1 474 0.719674 0.239842 0 0.571996 
475 1 475 0.719628 0.279824 0 0.564055 
476 1 476 0.719582 0.319809 0 0.514968 
477 1 477 0.719533 0.359794 0 0.503561 
478 1 478 0.719484 0.399782 0 0.521542 
479 1 479 0.719436 0.439769 0 0.478353 
480 1 480 0.719395 0.479758 0 0.514659 
481 1 481 0.719352 0.519747 0 0.485668 
482 1 482 0.719316 0.559738 0 0.448385 
483 1 483 0.719283 0.599731 0 0.360255 
484 1 484 0.71925 0.639727 0 0.129195 
485 1 485 0.719209 0.679727 0 -0.18927 
486 1 486 0.719182 0.71973 0 -0.590142 
487 1 487 0.719166 0.759737 0 -0.732054 
488 1 488 0.719151 0.799747 0 -0.758926 
489 1 489 0.719139 0.839759 0 -0.759122 
490 1 490 0.719138 0.879775 0 -0.864886 
491 1 491 0.719143 0.919796 0 -1.07093 
492 1 492 0.719152 0.959823 0 -1.23934 
493 1 493 0.71917 0.999857 0 -1.3285 
494 1 494 0.76 0 0 0 
495 1 495 0.759935 0.039962 0 0.209817 
496 1 496 0.759873 0.0799303 0 0.384215 
497 1 497 0.759813 0.119902 0 0.565652 
498 1 498 0.759758 0.159877 0 0.678137 
499 1 499 0.759705 0.199856 0 0.748405 
500 1 500 0.759655 0.239837 0 0.724048 
501 1 501 0.759608 0.27982 0 0.627723 
502 1 502 0.759558 0.319805 0 0.518385 
503 1 503 0.759507 0.35979 0 0.458741 
504 1 504 0.759458 0.399775 0 0.531766 
505 1 505 0.759406 0.43976 0 0.532661 
506 1 506 0.759363 0.479747 0 0.591456 
507 1 507 0.759322 0.519735 0 0.548136 
508 1 508 0.759284 0.559725 0 0.487582 
509 1 509 0.759237 0.599719 0 0.352672 
510 1 510 0.759201 0.639717 0 0.0398314 
511 1 511 0.759173 0.679717 0 -0.279454 
512 1 512 0.759147 0.719719 0 -0.714904 
513 1 513 0.75912 0.759725 0 -0.829943 
514 1 514 0.759101 0.799732 0 -0.736073 
515 1 515 0.75909 0.839744 0 -0.565542 
516 1 516 0.75908 0.879759 0 -0.475879 
517 1 517 0.759074 0.91978 0 -0.558279 
518 1 518 0.759082 0.959806 0 -0.674476 
519 1 519 0.759099 0.99984 0 -0.765226 
520 1 520 0.8 0 0 0 
521 1 521 0.79993 0.0399617 0 0.527607 
522 1 522 0.799865 0.0799275 0 0.739343 
523 1 523 0.799803 0.119897 0 0.873522 
524 1 524 0.799744 0.159871 0 0.988164 
525 1 525 0.799689 0.199849 0 1.07494 
526 1 526 0.799636 0.23983 0 0.972165 
527 1 527 0.799585 0.279813 0 0.756231 
528 1 528 0.799533 0.319797 0 0.550878 
529 1 529 0.79948 0.359782 0 0.416923 
530 1 530 0.799428 0.399767 0 0.52682 
531 1 531 0.799377 0.439751 0 0.608878 
532 1 532 0.799333 0.479737 0 0.73077 
533 1 533 0.799284 0.519723 0 0.668819 
534 1 534 0.799244 0.559714 0 0.562724 
535 1 535 0.799205 0.599706 0 0.404691 
536 1 536 0.799165 0.639701 0 0.0762519 
537 1 537 0.799117 0.6797 0 -0.220277 
538 1 538 0.799083 0.719702 0 -0.667694 
539 1 539 0.799062 0.759707 0 -0.738458 
540 1 540 0.799039 0.799716 0 -0.535276 
541 1 541 0.799022 0.839729 0 -0.226145 
542 1 542 0.799013 0.879745 0 0.0287385 
543 1 543 0.799008 0.919766 0 0.0694323 
544 1 544 0.799007 0.959793 0 -0.0453129 
545 1 545 0.799015 0.999829 0 -0.1905 
546 1 546 0.84 0 0 0 
547 1 547 0.839929 0.0399609 0 0.768529 
548 1 548 0.839859 0.0799246 0 1.07109 
549 1 549 0.839792 0.119891 0 1.22287 
550 1 550 0.839731 0.159864 0 1.33349 
551 1 551 0.839673 0.19984 0 1.41852 
552 1 552 0.839616 0.23982 0 1.27107 
553 1 553 0.839561 0.279802 0 0.9591 
554 1 554 0.839506 0.319787 0 0.664328 
555 1 555 0.839451 0.359771 0 0.468958 
556 1 556 0.839399 0.399754 0 0.576476 
557 1 557 0.839345 0.439737 0 0.661069 
558 1 558 0.839298 0.479722 0 0.751862 
559 1 559 0.839253 0.519709 0 0.657066 
560 1 560 0.839211 0.5597 0 0.558256 
561 1 561 0.839157 0.599694 0 0.435958 
562 1 562 0.839116 0.639692 0 0.15525 
563 1 563 0.839082 0.679692 0 -0.0639919 
564 1 564 0.839049 0.719694 0 -0.434384 
565 1 565 0.839014 0.7597 0 -0.445069 
566 1 566 0.838988 0.799708 0 -0.177862 
567 1 567 0.838971 0.839721 0 0.225041 
568 1 568 0.838951 0.879737 0 0.595464 
569 1 569 0.838938 0.91976 0 0.785863 
570 1 570 0.838935 0.959786 0 0.713066 
571 1 571 0.838941 0.999821 0 0.515661 
572 1 572 0.88 0 0 0 
573 1 573 0.879926 0.0399603 0 0.864884 
574 1 574 0.879855 0.0799216 0 1.29474 
575 1 575 0.879786 0.119887 0 1.55352 
576 1 576 0.879719 0.159857 0 1.71307 
577 1 577 0.879657 0.199831 0 1.8088 
578 1 578 0.879596 0.23981 0 1.61437 
579 1 579 0.879536 0.279792 0 1.18601 
580 1 580 0.879478 0.319775 0 0.776262 
581 1 581 0.879421 0.359759 0 0.480676 
582 1 582 0.879365 0.399743 0 0.520131 
583 1 583 0.879313 0.439726 0 0.599256 
584 1 584 0.879266 0.47971 0 0.685335 
585 1 585 0.879212 0.519697 0 0.601592 
586 1 586 0.879167 0.559687 0 0.533004 
587 1 587 0.879123 0.59968 0 0.451567 
588 1 588 0.879078 0.639675 0 0.232319 
589 1 589 0.879024 0.679673 0 0.104711 
590 1 590 0.878981 0.719676 0 -0.122503 
591 1 591 0.878951 0.759683 0 -0.0878595 
592 1 592 0.878921 0.799694 0 0.185082 
593 1 593 0.878895 0.83971 0 0.680815 
594 1 594 0.878879 0.879729 0 1.14359 
595 1 595 0.878869 0.919754 0 1.42091 
596 1 596 0.878857 0.959782 0 1.34246 
597 1 597 0.878855 0.999819 0 1.08711 
598 1 598 0.92 0 0 0 
599 1 599 0.919928 0.0399589 0 0.819047 
600 1 600 0.919852 0.079919 0 1.36392 
601 1 601 0.919779 0.119883 0 1.78491 
602 1 602 0.91971 0.159852 0 2.03856 
603 1 603 0.919643 0.199824 0 2.12317 
604 1 604 0.919577 0.239802 0 1.88395 
605 1 605 0.919513 0.279781 0 1.38129 
606 1 606 0.91945 0.319764 0 0.881239 
607 1 607 0.91939 0.359747 0 0.517114 
608 1 608 0.919335 0.399729 0 0.499786 
609 1 609 0.91928 0.439711 0 0.550075 
610 1 610 0.919228 0.479696 0 0.561267 
611 1 611 0.919178 0.519682 0 0.428573 
612 1 612 0.91913 0.559672 0 0.349604 
613 1 613 0.919071 0.599666 0 0.297579 
614 1 614 0.919024 0.639665 0 0.177501 
615 1 615 0.918985 0.679664 0 0.151487 
616 1 616 0.918942 0.719666 0 0.0719201 
617 1 617 0.918897 0.759674 0 0.20399 
618 1 618 0.918863 0.799686 0 0.576565 
619 1 619 0.918838 0.839703 0 1.16828 
620 1 620 0.918811 0.879725 0 1.67373 
621 1 621 0.918792 0.919753 0 2.05741 
622 1 622 0.918781 0.959783 0 2.03388 
623 1 623 0.91878 0.99982 0 1.76207 
624 1 624 0.96 0 0 0 
625 1 625 0.959926 0.0399584 0 0.647347 
626 1 626 0.959851 0.0799181 0 1.28308 
627 1 627 0.959776 0.119881 0 1.8834 
628 1 628 0.959702 0.159848 0 2.2581 
629 1 629 0.959631 0.19982 0 2.32705 
630 1 630 0.95956 0.239796 0 2.05171 
631 1 631 0.95949 0.279774 0 1.53925 
632 1 632 0.959424 0.319755 0 1.01042 
633 1 633 0.959361 0.359737 0 0.569508 
634 1 634 0.959301 0.399719 0 0.394676 
635 1 635 0.959245 0.439702 0 0.320028 
636 1 636 0.959193 0.479685 0 0.22398 
637 1 637 0.959134 0.519671 0 0.0465144 
638 1 638 0.959081 0.559661 0 -0.0573768 
639 1 639 0.959034 0.599652 0 -0.0922978 
640 1 640 0.958981 0.639645 0 -0.102162 
641 1 641 0.958918 0.679642 0 -0.00800635 
642 1 642 0.958866 0.719646 0 0.10541 
643 1 643 0.958825 0.759655 0 0.35806 
644 1 644 0.958785 0.799669 0 0.809707 
645 1 645 0.95875 0.839692 0 1.45753 
646 1 646 0.958728 0.879719 0 2.0356 
647 1 647 0.958714 0.919751 0 2.56165 
648 1 648 0.958697 0.959784 0 2.57465 
649 1 649 0.958689 0.999823 0 2.28518 
650 1 650 1 0 0 0 
651 1 651 0.999927 0.0399572 0 0.416876 
652 1 652 0.999848 0.0799174 0 1.10175 
653 1 653 0.999771 0.119881 0 1.82692 
654 1 654 0.999695 0.159847 0 2.29193 
655 1 655 0.99962 0.199817 0 2.37433 
656 1 656 0.999544 0.239792 0 2.10807 
657 1 657 0.999469 0.279768 0 1.59313 
658 1 658 0.999397 0.319747 0 1.03549 
659 1 659 0.999331 0.359727 0 0.571546 
660 1 660 0.999271 0.399708 0 0.346136 
661 1 661 0.999212 0.439689 0 0.224382 
662 1 662 0.999153 0.479673 0 0.0125481 
663 1 663 0.999097 0.519659 0 -0.236277 
664 1 664 0.99904 0.559647 0 -0.383055 
665 1 665 0.998975 0.599639 0 -0.449432 
666 1 666 0.998919 0.639635 0 -0.445192 
667 1 667 0.998872 0.679634 0 -0.30822 
668 1 668 0.998819 0.719635 0 -0.0115729 
669 1 669 0.99876 0.759645 0 0.396356 
670 1 670 0.998718 0.799662 0 0.994359 
671 1 671 0.998683 0.839686 0 1.7261 
672 1 672 0.998651 0.879715 0 2.36827 
673 1 673 0.998627 0.919751 0 2.98693 
674 1 674 0.998613 0.959789 0 3.01514 
675 1 675 0.998609 0.99983 0 2.7379 
676 1 676 1.04 0 0 0 
677 1 677 1.03992 0.0399578 0 0.186028 
678 1 678 1.03984 0.0799185 0 0.872005 
679 1 679 1.03977 0.119881 0 1.64897 
680 1 680 1.03969 0.159847 0 2.14475 
681 1 681 1.03961 0.199816 0 2.21 
682 1 682 1.03953 0.239788 0 1.98329 
683 1 683 1.03945 0.279763 0 1.57024 
684 1 684 1.03937 0.319741 0 1.1069 
685 1 685 1.0393 0.359719 0 0.696486 
686 1 686 1.03924 0.399699 0 0.393959 
687 1 687 1.03917 0.43968 0 0.134691 
688 1 688 1.03911 0.479663 0 -0.211286 
689 1 689 1.03905 0.519649 0 -0.511019 
690 1 690 1.03899 0.559638 0 -0.724846 
691 1 691 1.03893 0.599626 0 -0.823861 
692 1 692 1.03887 0.639617 0 -0.781784 
693 1 693 1.0388 0.679615 0 -0.589279 
694 1 694 1.03873 0.719619 0 -0.114848 
695 1 695 1.03868 0.75963 0 0.39362 
696 1 696 1.03863 0.799649 0 1.06164 
697 1 697 1.03858 0.839677 0 1.84115 
698 1 698 1.03856 0.879711 0 2.54531 
699 1 699 1.03854 0.919749 0 3.26394 
700 1 700 1.03852 0.95979 0 3.42929 
701 1 701 1.03851 0.999834 0 3.27819 
702 1 702 1.08 0 0 0 
703 1 703 1.07992 0.0399578 0 0.0233623 
704 1 704 1.07984 0.0799193 0 0.647331 
705 1 705 1.07976 0.119882 0 1.36645 
706 1 706 1.07968 0.159846 0 1.84352 
707 1 707 1.0796 0.199814 0 1.88708 
708 1 708 1.07951 0.239785 0 1.70369 
709 1 709 1.07943 0.279757 0 1.42704 
710 1 710 1.07935 0.319733 0 1.09858 
711 1 711 1.07927 0.359709 0 0.763956 
712 1 712 1.07921 0.399688 0 0.429403 
713 1 713 1.07914 0.439669 0 0.110429 
714 1 714 1.07907 0.479652 0 -0.290324 
715 1 715 1.07901 0.519637 0 -0.596005 
716 1 716 1.07894 0.559624 0 -0.839221 
717 1 717 1.07887 0.599616 0 -0.960765 
718 1 718 1.0788 0.639613 0 -0.913245 
719 1 719 1.07874 0.679613 0 -0.699465 
720 1 720 1.07868 0.719616 0 -0.115494 
721 1 721 1.07861 0.759628 0 0.456098 
722 1 722 1.07856 0.799648 0 1.21825 
723 1 723 1.07851 0.839675 0 2.02845 
724 1 724 1.07847 0.879709 0 2.69189 
725 1 725 1.07844 0.91975 0 3.41634 
726 1 726 1.07843 0.959795 0 3.75666 
727 1 727 1.07842 0.999842 0 3.79016 
728 1 728 1.12 0 0 0 
729 1 729 1.11991 0.0399588 0 -0.0631909 
730 1 730 1.11983 0.0799199 0 0.431484 
731 1 731 1.11975 0.119882 0 0.987342 
732 1 732 1.11967 0.159847 0 1.38476 
733 1 733 1.11958 0.199813 0 1.42122 
734 1 734 1.11949 0.239782 0 1.30723 
735 1 735 1.1194 0.279753 0 1.15141 
736 1 736 1.11932 0.319727 0 0.959549 
737 1 737 1.11924 0.359702 0 0.757769 
738 1 738 1.11917 0.39968 0 0.462491 
739 1 739 1.1191 0.43966 0 0.12323 
740 1 740 1.11903 0.479643 0 -0.299795 
741 1 741 1.11896 0.519629 0 -0.591966 
742 1 742 1.11888 0.559618 0 -0.823328 
743 1 743 1.11882 0.599608 0 -0.914837 
744 1 744 1.11875 0.6396 0 -0.831347 
745 1 745 1.11866 0.679601 0 -0.581483 
746 1 746 1.11859 0.719608 0 0.0888418 
747 1 747 1.11852 0.759622 0 0.695796 
748 1 748 1.11846 0.799642 0 1.44963 
749 1 749 1.11841 0.839672 0 2.17423 
750 1 750 1.11837 0.879708 0 2.73714 
751 1 751 1.11835 0.919749 0 3.40793 
752 1 752 1.11832 0.959796 0 3.912 
753 1 753 1.1183 0.999847 0 4.14181 
754 1 754 1.16 0 0 0 
755 1 755 1.15991 0.039959 0 -0.0739507 
756 1 756 1.15983 0.0799205 0 0.266636 
757 1 757 1.15974 0.119883 0 0.625608 
758 1 758 1.15966 0.159846 0 0.870522 
759 1 759 1.15956 0.199811 0 0.837882 
760 1 760 1.15947 0.239778 0 0.786387 
761 1 761 1.15938 0.279748 0 0.762492 
762 1 762 1.15929 0.319719 0 0.72539 
763 1 763 1.15921 0.359693 0 0.649043 
764 1 764 1.15913 0.39967 0 0.384918 
765 1 765 1.15906 0.43965 0 0.0351269 
766 1 766 1.15898 0.479633 0 -0.391795 
767 1 767 1.15891 0.519619 0 -0.638655 
768 1 768 1.15884 0.559607 0 -0.785204 
769 1 769 1.15875 0.599602 0 -0.786612 
770 1 770 1.15867 0.639603 0 -0.641947 
771 1 771 1.15861 0.679607 0 -0.362263 
772 1 772 1.15853 0.719615 0 0.330083 
773 1 773 1.15845 0.759629 0 0.927538 
774 1 774 1.15838 0.79965 0 1.64343 