ITEM: TIMESTEP
0
ITEM: NUMBER OF ATOMS
6875
ITEM: BOX BOUNDS sm sm sm
0 4
0 2
0 0
ITEM: ATOMS id type tag x y z damage s11 s22 s33 s12 s13 s23 vx T ienergy 
1 1 1 0.0200007 0.0200001 0 0 0.0124022 0.00224921 0.00469896 0.00262746 0 0 -0.236848 0 0 
2 1 2 0.0200008 0.0599985 0 0 0.0127111 0.000681411 0.00430086 -0.00775934 0 0 -0.39585 0 0 
3 1 3 0.019999 0.0999984 0 0 -0.0096358 -0.00659309 -0.0051918 -0.00969828 0 0 -0.641315 0 0 
4 1 4 0.0199979 0.139999 0 0 -0.0209625 0.00690114 -0.0044994 -0.00484103 0 0 -0.375492 0 0 
5 1 5 0.0199981 0.180002 0 0 -0.0172948 0.00385779 -0.00429912 0.0128407 0 0 -0.605704 0 0 
6 1 6 0.0199985 0.220004 0 0 -0.0121047 0.0134575 0.000440351 0.0140316 0 0 -0.524612 0 0 
7 1 7 0.0199971 0.260008 0 0 -0.0253587 0.0126933 -0.00404974 0.0337141 0 0 -0.628873 0 0 
8 1 8 0.0199974 0.300011 0 0 -0.034466 -0.00160726 -0.0115481 0.0458342 0 0 -0.22378 0 0 
9 1 9 0.0199978 0.340013 0 0 -0.0262954 -0.00252233 -0.009221 0.0590947 0 0 -0.197413 0 0 
10 1 10 0.0199985 0.380012 0 0 -0.0342728 -0.0322711 -0.0213104 0.0511353 0 0 -0.235096 0 0 
11 1 11 0.0199979 0.42001 0 0 -0.0368282 -0.0329628 -0.0223514 0.043344 0 0 -0.223974 0 0 
12 1 12 0.0199968 0.460008 0 0 -0.0559891 -0.0316664 -0.0280785 0.027264 0 0 -0.0367541 0 0 
13 1 13 0.0199946 0.500009 0 0 -0.0697468 -0.0270787 -0.031019 0.0377173 0 0 -0.414754 0 0 
14 1 14 0.0199948 0.54001 0 0 -0.0651308 -0.0144013 -0.0254776 0.0398768 0 0 -0.480721 0 0 
15 1 15 0.0199951 0.580014 0 0 -0.0360303 0.00264001 -0.0106908 0.0650405 0 0 -1.04102 0 0 
16 1 16 0.0199987 0.620014 0 0 0.00140861 -0.0135149 -0.0038718 0.0620626 0 0 -1.61154 0 0 
17 1 17 0.0200015 0.660012 0 0 0.0663424 0.0218835 0.0282671 0.0599494 0 0 -1.92312 0 0 
18 1 18 0.020006 0.700008 0 0 0.102386 0.00435708 0.0341974 0.0345901 0 0 -2.04709 0 0 
19 1 19 0.0200067 0.740003 0 0 0.139102 0.0487562 0.0601668 0.0115331 0 0 -1.71885 0 0 
20 1 20 0.0200102 0.779999 0 0 0.165556 0.0470421 0.0680853 0.0016344 0 0 -1.94986 0 0 
21 1 21 0.0200101 0.819995 0 0 0.176377 0.0731388 0.0799 -0.0283519 0 0 -0.813327 0 0 
22 1 22 0.0200129 0.859991 0 0 0.200238 0.0641196 0.084648 -0.0158652 0 0 -1.98328 0 0 
23 1 23 0.0200145 0.899989 0 0 0.229157 0.110347 0.108686 -0.0585253 0 0 0.0776377 0 0 
24 1 24 0.0200144 0.939985 0 0 0.202675 0.0363948 0.076555 -0.0441889 0 0 -1.22892 0 0 
25 1 25 0.0200225 0.979977 0 0 0.349869 0.0957432 0.132641 -0.0969328 0 0 0.211278 0 0 
26 1 26 0.0600022 0.0199999 0 0 0.00278381 -0.00874719 -0.00190505 0.00907318 0 0 -0.31926 0 0 
27 1 27 0.0600026 0.0599961 0 0 -0.00762034 -0.0209166 -0.00913684 -0.0151717 0 0 -0.253947 0 0 
28 1 28 0.059997 0.0999955 0 0 -0.0315917 -0.0191364 -0.0162479 -0.0169015 0 0 -0.998352 0 0 
29 1 29 0.0599929 0.139997 0 0 -0.0431533 0.0106796 -0.0103963 -0.0178473 0 0 -0.658995 0 0 
30 1 30 0.0599915 0.180002 0 0 -0.0702519 -0.00751699 -0.0249152 -0.000227893 0 0 -1.26092 0 0 
31 1 31 0.0599906 0.220007 0 0 -0.0878398 -0.00231088 -0.0288841 -0.0209027 0 0 -1.06967 0 0 
32 1 32 0.0599863 0.260016 0 0 -0.0932277 0.0201613 -0.0234081 -0.00193858 0 0 -1.37349 0 0 
33 1 33 0.0599877 0.300022 0 0 -0.0999913 -0.0176416 -0.037694 0.00589923 0 0 -0.838563 0 0 
34 1 34 0.0599909 0.340029 0 0 -0.0584364 0.00741875 -0.0163407 0.0222809 0 0 -0.734847 0 0 
35 1 35 0.0599951 0.380028 0 0 -0.0579161 -0.0612731 -0.0381919 0.0151573 0 0 -0.626825 0 0 
36 1 36 0.0599949 0.420025 0 0 -0.0360086 -0.0354088 -0.0228781 0.0171832 0 0 -0.33437 0 0 
37 1 37 0.0599915 0.460021 0 0 -0.052603 -0.0381368 -0.0290728 0.00193529 0 0 -0.0309976 0 0 
38 1 38 0.0599857 0.500023 0 0 -0.0608873 0.00330141 -0.0184463 0.0249715 0 0 -0.499046 0 0 
39 1 39 0.0599868 0.540028 0 0 -0.0668715 -0.00058658 -0.0216101 0.0322345 0 0 -0.281513 0 0 
40 1 40 0.0599919 0.580035 0 0 -0.0188442 0.0470652 0.00904889 0.0618282 0 0 -0.247917 0 0 
41 1 41 0.0600059 0.620037 0 0 0.00750627 -0.0401821 -0.0104629 0.0684038 0 0 -0.728587 0 0 
42 1 42 0.0600181 0.660031 0 0 0.101306 0.0328533 0.0429754 0.0578879 0 0 -0.419927 0 0 
43 1 43 0.0600293 0.700022 0 0 0.101811 -0.0689297 0.0105407 0.049592 0 0 -1.59863 0 0 
44 1 44 0.0600334 0.740008 0 0 0.177015 0.0403967 0.0696258 0.00848352 0 0 -0.922958 0 0 
45 1 45 0.0600361 0.779998 0 0 0.140071 -0.0248976 0.0368966 0.0210681 0 0 -2.50668 0 0 
46 1 46 0.0600385 0.819985 0 0 0.198913 0.0476959 0.0789701 -0.0323218 0 0 -1.06739 0 0 
47 1 47 0.0600402 0.859977 0 0 0.172006 0.0116089 0.0588075 -0.00128167 0 0 -3.17657 0 0 
48 1 48 0.0600456 0.899965 0 0 0.222683 0.0403037 0.0842117 -0.0691192 0 0 -2.03937 0 0 
49 1 49 0.0600479 0.939953 0 0 0.243632 0.0185072 0.0839432 -0.0454733 0 0 -2.56554 0 0 
50 1 50 0.0600649 0.979936 0 0 0.249734 0.00928759 0.0829426 -0.037979 0 0 0.0184519 0 0 
51 1 51 0.100003 0.0199987 0 0 -0.00446987 -0.0227937 -0.00874097 0.0119178 0 0 -0.435938 0 0 
52 1 52 0.100003 0.0599939 0 0 -0.0139607 -0.0327024 -0.0149508 -0.0246785 0 0 -0.480528 0 0 
53 1 53 0.0999919 0.0999923 0 0 -0.0473283 -0.0281737 -0.0241891 -0.0302955 0 0 -1.73596 0 0 
54 1 54 0.0999822 0.139993 0 0 -0.0847391 -0.0219276 -0.0341774 -0.0313191 0 0 -1.96431 0 0 
55 1 55 0.0999765 0.179997 0 0 -0.124474 -0.0325105 -0.0503114 -0.0159912 0 0 -2.5427 0 0 
56 1 56 0.0999727 0.220002 0 0 -0.145339 -0.0299827 -0.0561903 -0.0357343 0 0 -1.76547 0 0 
57 1 57 0.0999662 0.260011 0 0 -0.141513 0.00780993 -0.0428459 -0.022444 0 0 -1.76995 0 0 
58 1 58 0.0999683 0.300019 0 0 -0.169278 -0.0512761 -0.0707001 -0.00924242 0 0 -1.63592 0 0 
59 1 59 0.0999759 0.340026 0 0 -0.119307 0.000203076 -0.0381671 0.00616071 0 0 -1.52474 0 0 
60 1 60 0.0999858 0.380029 0 0 -0.114534 -0.0737558 -0.0603509 0.00515539 0 0 -1.56412 0 0 
61 1 61 0.0999884 0.420029 0 0 -0.0690826 -0.0181282 -0.0279424 -0.00248279 0 0 -0.836118 0 0 
62 1 62 0.0999831 0.46003 0 0 -0.079134 -0.0382218 -0.0376077 -0.00629079 0 0 -0.706096 0 0 
63 1 63 0.0999745 0.500034 0 0 -0.0545033 0.0329534 -0.00690056 0.00807126 0 0 -1.02912 0 0 
64 1 64 0.099974 0.540042 0 0 -0.0601701 0.00661215 -0.0171561 0.0363575 0 0 -1.8304 0 0 
65 1 65 0.0999844 0.580049 0 0 0.0167522 0.0680683 0.0271781 0.059255 0 0 -2.41721 0 0 
66 1 66 0.100007 0.620051 0 0 0.0394135 -0.0284035 0.00353558 0.0855243 0 0 -3.8497 0 0 
67 1 67 0.100031 0.660043 0 0 0.151609 0.0393719 0.0611666 0.0568646 0 0 -3.53374 0 0 
68 1 68 0.100048 0.700032 0 0 0.135332 -0.0634744 0.0230254 0.0552178 0 0 -4.7517 0 0 
69 1 69 0.100058 0.740014 0 0 0.193371 0.000751601 0.0621716 0.011912 0 0 -3.83363 0 0 
70 1 70 0.100061 0.779998 0 0 0.185493 -0.0248901 0.051441 0.0178362 0 0 -3.53735 0 0 
71 1 71 0.100067 0.819979 0 0 0.183118 -0.0341143 0.0477287 -0.0115009 0 0 -2.32652 0 0 
72 1 72 0.100071 0.859961 0 0 0.223764 0.010284 0.0749471 -0.0154606 0 0 -2.65632 0 0 
73 1 73 0.100078 0.899944 0 0 0.188215 -0.0432659 0.0464333 -0.0308585 0 0 -3.7597 0 0 
74 1 74 0.100084 0.939922 0 0 0.210049 -0.0235348 0.0597453 -0.0316254 0 0 -3.59084 0 0 
75 1 75 0.100099 0.979906 0 0 0.179794 0.00292865 0.0585285 -0.0239497 0 0 -0.561436 0 0 
76 1 76 0.140003 0.0199974 0 0 -0.0274828 -0.0471752 -0.023928 0.0130047 0 0 -0.389634 0 0 
77 1 77 0.140001 0.0599921 0 0 -0.042962 -0.0472613 -0.0289121 -0.0294861 0 0 -0.49032 0 0 
78 1 78 0.139985 0.0999892 0 0 -0.0774272 -0.0501387 -0.0408858 -0.0443225 0 0 -1.7053 0 0 
79 1 79 0.139969 0.139988 0 0 -0.124776 -0.0593392 -0.0590161 -0.0424789 0 0 -2.41893 0 0 
80 1 80 0.139957 0.17999 0 0 -0.158404 -0.0454499 -0.0653446 -0.0254357 0 0 -2.67786 0 0 
81 1 81 0.13995 0.219996 0 0 -0.184794 -0.0479725 -0.0746159 -0.0321375 0 0 -1.86151 0 0 
82 1 82 0.139941 0.260004 0 0 -0.188964 -0.0310278 -0.0705175 -0.0233752 0 0 -2.02917 0 0 
83 1 83 0.139943 0.300011 0 0 -0.200022 -0.0604463 -0.083504 0.00282409 0 0 -2.08561 0 0 
84 1 84 0.139955 0.340018 0 0 -0.157023 -0.0184141 -0.0562289 0.0189863 0 0 -1.94177 0 0 
85 1 85 0.13997 0.380024 0 0 -0.151302 -0.056086 -0.0664743 0.0168441 0 0 -2.13854 0 0 
86 1 86 0.139976 0.420029 0 0 -0.108741 -0.0054349 -0.0365835 -0.00354985 0 0 -1.27671 0 0 
87 1 87 0.139971 0.460035 0 0 -0.101346 -0.0145239 -0.0371281 -0.00726988 0 0 -1.17616 0 0 
88 1 88 0.139964 0.500043 0 0 -0.0624291 0.0321862 -0.00968398 0.00229041 0 0 -1.23529 0 0 
89 1 89 0.139966 0.540051 0 0 -0.0464329 0.0190482 -0.00876733 0.0354966 0 0 -1.50054 0 0 
90 1 90 0.139986 0.580057 0 0 0.00536617 0.0367915 0.013513 0.0674545 0 0 -1.68211 0 0 
91 1 91 0.140019 0.620057 0 0 0.029545 -0.0168791 0.0040644 0.0884074 0 0 -2.2694 0 0 
92 1 92 0.140054 0.66005 0 0 0.0860605 -0.0181395 0.0217638 0.0713732 0 0 -2.34935 0 0 
93 1 93 0.140078 0.700036 0 0 0.118967 -0.0548859 0.0205337 0.0400373 0 0 -2.67177 0 0 
94 1 94 0.14009 0.740018 0 0 0.135496 -0.0616694 0.0236557 0.0192254 0 0 -2.85228 0 0 
95 1 95 0.140096 0.779996 0 0 0.161728 -0.0649333 0.0310102 0.00283354 0 0 -2.29748 0 0 
96 1 96 0.140101 0.819973 0 0 0.171355 -0.0664752 0.0336012 -0.00328989 0 0 -1.70525 0 0 
97 1 97 0.140107 0.859948 0 0 0.167872 -0.0774257 0.0289812 -0.0044837 0 0 -2.83478 0 0 
98 1 98 0.140111 0.899927 0 0 0.195948 -0.0201177 0.0563217 -0.0232692 0 0 -3.63471 0 0 
99 1 99 0.140118 0.939907 0 0 0.156091 -0.0642612 0.029424 0.0086092 0 0 -4.15377 0 0 
100 1 100 0.140125 0.97989 0 0 0.147856 -0.000628219 0.047162 -0.0114186 0 0 -0.841653 0 0 
101 1 101 0.180003 0.0199976 0 0 -0.027977 -0.0474854 -0.0241759 0.0132451 0 0 -0.192142 0 0 
102 1 102 0.179998 0.0599927 0 0 -0.0405404 -0.0436736 -0.026982 -0.0281865 0 0 -0.604206 0 0 
103 1 103 0.179977 0.0999884 0 0 -0.0816523 -0.0672885 -0.047739 -0.0523406 0 0 -1.97 0 0 
104 1 104 0.179953 0.139985 0 0 -0.118736 -0.065849 -0.0591692 -0.0466367 0 0 -2.78519 0 0 
105 1 105 0.179936 0.179987 0 0 -0.141221 -0.0318667 -0.0554807 -0.0299288 0 0 -3.10091 0 0 
106 1 106 0.179923 0.219992 0 0 -0.185057 -0.0556703 -0.077171 -0.0326034 0 0 -2.96 0 0 
107 1 107 0.179913 0.259999 0 0 -0.182822 -0.0424523 -0.0722126 -0.0191242 0 0 -3.18288 0 0 
108 1 108 0.179916 0.300005 0 0 -0.177379 -0.0478894 -0.0722115 0.0104236 0 0 -2.88555 0 0 
109 1 109 0.179931 0.340012 0 0 -0.161924 -0.0310578 -0.0618552 0.0269035 0 0 -2.92846 0 0 
110 1 110 0.179948 0.380019 0 0 -0.158513 -0.0292455 -0.0601772 0.0189056 0 0 -3.02202 0 0 
111 1 111 0.179956 0.420028 0 0 -0.130462 0.011144 -0.0382296 0.0021661 0 0 -2.43872 0 0 
112 1 112 0.179954 0.460038 0 0 -0.114876 -0.0034051 -0.0378985 -0.00983639 0 0 -2.16083 0 0 
113 1 113 0.17995 0.500048 0 0 -0.0719415 0.0304866 -0.0132748 0.00199912 0 0 -2.45186 0 0 
114 1 114 0.179957 0.540054 0 0 -0.0427906 -0.0018616 -0.0142999 0.0321836 0 0 -3.04718 0 0 
115 1 115 0.179982 0.580057 0 0 0.0174677 0.0253142 0.013712 0.0660859 0 0 -3.81545 0 0 
116 1 116 0.180022 0.620055 0 0 0.046737 -0.0144276 0.010355 0.0812835 0 0 -4.68536 0 0 
117 1 117 0.180065 0.660048 0 0 0.0913859 -0.0112476 0.0256747 0.0700698 0 0 -4.98219 0 0 
118 1 118 0.180096 0.700035 0 0 0.105607 -0.0633366 0.0135462 0.0358453 0 0 -4.70127 0 0 
119 1 119 0.180113 0.740016 0 0 0.141296 -0.0517916 0.0286766 0.0123466 0 0 -3.77444 0 0 
120 1 120 0.180123 0.779993 0 0 0.119548 -0.123163 -0.00115198 0.00892641 0 0 -2.88958 0 0 
121 1 121 0.18013 0.819966 0 0 0.154226 -0.0618383 0.0296012 -0.00437677 0 0 -1.52682 0 0 
122 1 122 0.180136 0.859943 0 0 0.114843 -0.120724 -0.00187375 0.00815162 0 0 -2.41456 0 0 
123 1 123 0.18014 0.899918 0 0 0.130697 -0.0544077 0.0244488 -0.000738767 0 0 -3.4859 0 0 
124 1 124 0.180144 0.939901 0 0 0.126221 -0.0318579 0.0302312 0.00612612 0 0 -3.94857 0 0 
125 1 125 0.180147 0.979888 0 0 0.114691 -0.0344402 0.0257127 3.36943e-05 0 0 -1.97223 0 0 
126 1 126 0.220001 0.0199982 0 0 -0.036577 -0.0437949 -0.0257508 0.00470568 0 0 0.245315 0 0 
127 1 127 0.219994 0.0599938 0 0 -0.0648751 -0.0546954 -0.0383121 -0.0367991 0 0 -0.166641 0 0 
128 1 128 0.219969 0.0999897 0 0 -0.0831535 -0.0673925 -0.0482481 -0.058848 0 0 -1.28005 0 0 
129 1 129 0.219941 0.139986 0 0 -0.0948061 -0.0542728 -0.0477824 -0.0470068 0 0 -2.04187 0 0 
130 1 130 0.219918 0.179989 0 0 -0.11555 -0.0242057 -0.0447942 -0.0367783 0 0 -2.98607 0 0 
131 1 131 0.2199 0.219991 0 0 -0.154934 -0.0608211 -0.0691634 -0.0306706 0 0 -3.23162 0 0 
132 1 132 0.219892 0.259996 0 0 -0.120139 -0.0182938 -0.0443647 -0.00672232 0 0 -3.53937 0 0 
133 1 133 0.219896 0.3 0 0 -0.125396 -0.0454273 -0.054751 0.00899043 0 0 -3.51643 0 0 
134 1 134 0.219909 0.340004 0 0 -0.130421 -0.0188485 -0.0478394 0.0230117 0 0 -4.09773 0 0 
135 1 135 0.219925 0.380013 0 0 -0.144249 -0.00562387 -0.048031 0.0115042 0 0 -4.07596 0 0 
136 1 136 0.219933 0.420026 0 0 -0.132754 0.0340726 -0.0316181 0.00015859 0 0 -3.85685 0 0 
137 1 137 0.219935 0.460038 0 0 -0.128839 -0.0144091 -0.0459072 -0.00816553 0 0 -3.58516 0 0 
138 1 138 0.219937 0.500046 0 0 -0.066356 0.0306473 -0.0114356 -0.00190481 0 0 -3.17749 0 0 
139 1 139 0.219951 0.54005 0 0 -0.0692665 -0.0525496 -0.0390355 0.0302765 0 0 -3.40805 0 0 
140 1 140 0.219984 0.580047 0 0 -0.0305801 -0.0224848 -0.016999 0.0533996 0 0 -3.04206 0 0 
141 1 141 0.22003 0.620043 0 0 -0.0423272 -0.0613787 -0.0332333 0.0690877 0 0 -3.08851 0 0 
142 1 142 0.220078 0.660036 0 0 -0.0200073 -0.0575622 -0.024855 0.0598033 0 0 -2.75869 0 0 
143 1 143 0.220115 0.700025 0 0 -0.000744624 -0.0849132 -0.0274458 0.0312772 0 0 -1.95581 0 0 
144 1 144 0.220137 0.740009 0 0 0.041267 -0.0943813 -0.0170129 0.0168934 0 0 -1.31559 0 0 
145 1 145 0.220151 0.779987 0 0 0.0713088 -0.127581 -0.0180236 0.0119677 0 0 -0.432257 0 0 
146 1 146 0.220159 0.819963 0 0 0.102387 -0.0917113 0.00342893 0.00504915 0 0 0.0814566 0 0 
147 1 147 0.220162 0.85994 0 0 0.0927366 -0.103487 -0.00343668 0.00619865 0 0 -1.04621 0 0 
148 1 148 0.220164 0.899919 0 0 0.0971013 -0.0660727 0.00994915 0.00687148 0 0 -2.50322 0 0 
149 1 149 0.220165 0.939902 0 0 0.0948876 -0.0475264 0.0151786 0.0181816 0 0 -3.84432 0 0 
150 1 150 0.220166 0.97989 0 0 0.094663 -0.0179398 0.0245846 -0.000214813 0 0 -3.2521 0 0 
151 1 151 0.259998 0.0199972 0 0 -0.0545658 -0.0589611 -0.0363821 -0.013458 0 0 0.080773 0 0 
152 1 152 0.259985 0.0599934 0 0 -0.0761438 -0.0497222 -0.0403304 -0.0423169 0 0 -0.604465 0 0 
153 1 153 0.259961 0.0999924 0 0 -0.055888 -0.0283605 -0.0269913 -0.0542406 0 0 -1.21876 0 0 
154 1 154 0.259932 0.139991 0 0 -0.0590734 -0.0368193 -0.0307273 -0.0495267 0 0 -2.07023 0 0 
155 1 155 0.259904 0.179992 0 0 -0.0615652 -0.011623 -0.0234518 -0.0427996 0 0 -3.46165 0 0 
156 1 156 0.259886 0.219993 0 0 -0.0633232 -0.0272954 -0.0290378 -0.0203 0 0 -3.7653 0 0 
157 1 157 0.25988 0.259996 0 0 -0.0281841 0.00486739 -0.00746689 0.00625399 0 0 -4.38509 0 0 
158 1 158 0.259884 0.299995 0 0 -0.0539691 -0.0394857 -0.0299458 0.00475464 0 0 -4.5264 0 0 
159 1 159 0.259893 0.339998 0 0 -0.070107 0.0091893 -0.0195166 0.0152626 0 0 -5.06494 0 0 
160 1 160 0.259904 0.380007 0 0 -0.107562 0.017097 -0.0289869 0.00488149 0 0 -5.05893 0 0 
161 1 161 0.25991 0.42002 0 0 -0.110601 0.0466211 -0.0204988 -0.00480054 0 0 -5.06337 0 0 
162 1 162 0.259915 0.460032 0 0 -0.123213 -0.0139628 -0.043965 -0.00301606 0 0 -4.98563 0 0 
163 1 163 0.259924 0.500038 0 0 -0.0723152 -0.00197644 -0.0238053 0.0010616 0 0 -4.54301 0 0 
164 1 164 0.259944 0.540037 0 0 -0.0628628 -0.0753787 -0.0443041 0.0275278 0 0 -4.88163 0 0 
165 1 165 0.259979 0.58003 0 0 -0.0307581 -0.0590482 -0.0287756 0.0466648 0 0 -4.88408 0 0 
166 1 166 0.260024 0.620022 0 0 -0.0275125 -0.0548626 -0.0263944 0.0548791 0 0 -5.15172 0 0 
167 1 167 0.260073 0.660016 0 0 -0.034716 -0.0563646 -0.0291847 0.0558075 0 0 -4.96162 0 0 
168 1 168 0.260115 0.700009 0 0 -0.0124699 -0.0554806 -0.0217684 0.0305794 0 0 -3.27225 0 0 
169 1 169 0.260144 0.739998 0 0 0.0118982 -0.0771767 -0.0209109 0.023174 0 0 -1.73039 0 0 
170 1 170 0.260165 0.779981 0 0 0.0149445 -0.128682 -0.036444 0.0169867 0 0 -0.471222 0 0 
171 1 171 0.260176 0.81996 0 0 0.0567533 -0.0860127 -0.00936714 0.00595575 0 0 0.384182 0 0 
172 1 172 0.260181 0.859941 0 0 0.0421743 -0.120592 -0.0251234 0.00860648 0 0 -0.460459 0 0 
173 1 173 0.260182 0.899922 0 0 0.0694153 -0.055451 0.00448071 0.00381194 0 0 -1.54864 0 0 
174 1 174 0.260182 0.939908 0 0 0.0692488 -0.0516022 0.00565977 0.0179432 0 0 -3.26082 0 0 
175 1 175 0.260181 0.979897 0 0 0.0768399 -0.0209531 0.0179121 0.00805699 0 0 -4.1519 0 0 
176 1 176 0.299993 0.0199964 0 0 -0.070797 -0.073454 -0.0462341 -0.031197 0 0 0.219143 0 0 
177 1 177 0.299976 0.0599946 0 0 -0.0830823 -0.0267195 -0.0351848 -0.0328127 0 0 -0.150105 0 0 
178 1 178 0.299954 0.0999976 0 0 -0.0547159 -0.00548611 -0.0192849 -0.0391368 0 0 -0.372928 0 0 
179 1 179 0.299927 0.139998 0 0 -0.0463338 -0.0318704 -0.0250559 -0.0481553 0 0 -1.26083 0 0 
180 1 180 0.299899 0.179998 0 0 -0.0240315 -0.00767505 -0.0101552 -0.0392414 0 0 -2.82106 0 0 
181 1 181 0.299882 0.219997 0 0 -0.00506535 -0.00483124 -0.00316541 -0.0111103 0 0 -3.49081 0 0 
182 1 182 0.299878 0.259996 0 0 0.00255838 -0.0150786 -0.00400524 0.00933212 0 0 -4.59818 0 0 
183 1 183 0.299882 0.299992 0 0 -0.0154512 -0.0332554 -0.0156015 -0.000939515 0 0 -4.73288 0 0 
184 1 184 0.299884 0.339994 0 0 -0.0288632 0.0289402 3.11228e-05 0.00208981 0 0 -4.97633 0 0 
185 1 185 0.299887 0.380002 0 0 -0.0937983 0.0110585 -0.0265086 -0.00558062 0 0 -5.2266 0 0 
186 1 186 0.299889 0.420013 0 0 -0.104023 0.0387268 -0.0209198 -0.00504605 0 0 -5.51664 0 0 
187 1 187 0.299898 0.460024 0 0 -0.115173 -0.0195681 -0.0431852 0.00470795 0 0 -5.35552 0 0 
188 1 188 0.299913 0.500026 0 0 -0.0900142 -0.0458483 -0.0435449 0.0135868 0 0 -4.84382 0 0 
189 1 189 0.29994 0.54002 0 0 -0.0868102 -0.109287 -0.0628579 0.0339352 0 0 -4.37292 0 0 
190 1 190 0.299979 0.580009 0 0 -0.090371 -0.10953 -0.0640758 0.0441434 0 0 -3.52292 0 0 
191 1 191 0.300023 0.619999 0 0 -0.126934 -0.116564 -0.0780603 0.0467712 0 0 -3.04069 0 0 
192 1 192 0.300069 0.659993 0 0 -0.140103 -0.0851103 -0.0721945 0.0513774 0 0 -2.17972 0 0 
193 1 193 0.300113 0.699989 0 0 -0.135211 -0.0995597 -0.0752589 0.0425017 0 0 -0.742757 0 0 
194 1 194 0.30015 0.739982 0 0 -0.0645756 -0.0731725 -0.0441426 0.0308392 0 0 0.730844 0 0 
195 1 195 0.300176 0.779971 0 0 -0.0279548 -0.111849 -0.0448023 0.0197392 0 0 1.53018 0 0 
196 1 196 0.30019 0.819956 0 0 0.0215437 -0.0775129 -0.0179276 0.00727688 0 0 1.13693 0 0 
197 1 197 0.300196 0.85994 0 0 0.0363528 -0.0933837 -0.0182687 0.000823242 0 0 0.290448 0 0 
198 1 198 0.300196 0.899925 0 0 0.0539038 -0.0523089 0.000518046 0.00479678 0 0 -0.619846 0 0 
199 1 199 0.300195 0.939913 0 0 0.0446236 -0.0418918 0.000881138 0.0138323 0 0 -2.66364 0 0 
200 1 200 0.300192 0.979906 0 0 0.0510667 -0.0105927 0.0129747 0.00566506 0 0 -4.73781 0 0 
201 1 201 0.339988 0.019998 0 0 -0.0463086 -0.044416 -0.0290738 -0.0474288 0 0 -0.0294683 0 0 
202 1 202 0.339966 0.0599989 0 0 -0.0450859 0.0102454 -0.0111597 -0.0265291 0 0 -0.633547 0 0 
203 1 203 0.339947 0.100004 0 0 -0.0284631 0.0124409 -0.00512862 -0.0288439 0 0 -0.68021 0 0 
204 1 204 0.339923 0.140004 0 0 -0.0126929 -0.0149335 -0.00884723 -0.0439218 0 0 -1.01112 0 0 
205 1 205 0.339898 0.180004 0 0 0.01883 0.00158646 0.00654505 -0.0342221 0 0 -2.22421 0 0 
206 1 206 0.339884 0.220001 0 0 0.0323849 -0.0103474 0.00706711 -0.00838314 0 0 -3.14496 0 0 
207 1 207 0.339882 0.259996 0 0 0.0302567 -0.0250522 0.00167535 0.00375616 0 0 -4.07195 0 0 
208 1 208 0.339883 0.29999 0 0 0.011344 -0.0237505 -0.00396712 -0.0103578 0 0 -4.136 0 0 
209 1 209 0.339878 0.339991 0 0 -0.0122461 0.0314078 0.0061474 -0.0237861 0 0 -4.30975 0 0 
210 1 210 0.339871 0.379996 0 0 -0.0962503 -0.0149579 -0.0356317 -0.0295831 0 0 -4.70645 0 0 
211 1 211 0.33987 0.420004 0 0 -0.103313 0.025624 -0.0248883 -0.0119605 0 0 -5.26712 0 0 
212 1 212 0.339881 0.460012 0 0 -0.119116 -0.0431877 -0.0520192 0.00513517 0 0 -5.063 0 0 
213 1 213 0.339902 0.50001 0 0 -0.095562 -0.0781142 -0.0556676 0.018916 0 0 -4.59505 0 0 
214 1 214 0.339934 0.540001 0 0 -0.0823888 -0.119374 -0.0646738 0.0330567 0 0 -4.30668 0 0 
215 1 215 0.33997 0.579988 0 0 -0.0775592 -0.117897 -0.0626494 0.035062 0 0 -4.24808 0 0 
216 1 216 0.340009 0.619976 0 0 -0.086771 -0.103405 -0.0609563 0.037461 0 0 -4.23688 0 0 
217 1 217 0.340051 0.659971 0 0 -0.0828279 -0.0494859 -0.0424019 0.0478755 0 0 -3.52069 0 0 
218 1 218 0.340097 0.699968 0 0 -0.0885136 -0.0605541 -0.0477736 0.0526819 0 0 -2.17876 0 0 
219 1 219 0.34014 0.739965 0 0 -0.0614288 -0.0520737 -0.0363705 0.0500881 0 0 -0.426349 0 0 
220 1 220 0.340176 0.779958 0 0 -0.0314184 -0.0684397 -0.0319973 0.0292377 0 0 0.851107 0 0 
221 1 221 0.340196 0.819949 0 0 0.00700178 -0.0610424 -0.0173106 0.013156 0 0 0.702154 0 0 
222 1 222 0.340205 0.859938 0 0 0.0156963 -0.0712628 -0.0178006 0.00144225 0 0 0.207584 0 0 
223 1 223 0.340206 0.899927 0 0 0.0370651 -0.0306593 0.00205852 -0.00379887 0 0 -0.0447841 0 0 
224 1 224 0.340204 0.93992 0 0 0.0259758 -0.0363224 -0.00330965 0.0105596 0 0 -1.93905 0 0 
225 1 225 0.340199 0.979915 0 0 0.0398071 0.0123786 0.0167249 0.0062646 0 0 -4.702 0 0 
226 1 226 0.379984 0.020001 0 0 -0.0179418 0.00339639 -0.00465753 -0.0615619 0 0 -0.216567 0 0 
227 1 227 0.379958 0.0600041 0 0 -0.0392004 0.0112932 -0.0089364 -0.0290624 0 0 -0.728459 0 0 
228 1 228 0.379941 0.100009 0 0 -0.0352262 0.00531202 -0.00958029 -0.0250661 0 0 -0.115683 0 0 
229 1 229 0.379923 0.140009 0 0 -0.0109135 -0.0146096 -0.0081735 -0.0395959 0 0 0.235887 0 0 
230 1 230 0.379902 0.180007 0 0 0.0191079 -0.0138743 0.00168003 -0.0390934 0 0 -0.746894 0 0 
231 1 231 0.37989 0.22 0 0 0.0131358 -0.0525337 -0.0126192 -0.0163336 0 0 -1.87452 0 0 
232 1 232 0.379889 0.259992 0 0 0.014096 -0.0391908 -0.00803482 -0.0107749 0 0 -2.26422 0 0 
233 1 233 0.379885 0.299986 0 0 -0.0207831 -0.0408767 -0.019752 -0.0316728 0 0 -2.35268 0 0 
234 1 234 0.379872 0.339984 0 0 -0.059101 -0.0133168 -0.0231994 -0.0550791 0 0 -2.69715 0 0 
235 1 235 0.379857 0.379986 0 0 -0.119258 -0.0460545 -0.0529792 -0.0570017 0 0 -2.7013 0 0 
236 1 236 0.379852 0.419991 0 0 -0.120377 -0.0114181 -0.0422324 -0.0252564 0 0 -3.38187 0 0 
237 1 237 0.379865 0.459993 0 0 -0.142193 -0.0800219 -0.071232 -0.00503964 0 0 -3.34356 0 0 
238 1 238 0.379892 0.499988 0 0 -0.132056 -0.115173 -0.079257 0.0171156 0 0 -2.91994 0 0 
239 1 239 0.379929 0.539978 0 0 -0.124453 -0.137299 -0.0839155 0.0247534 0 0 -2.16199 0 0 
240 1 240 0.379966 0.579965 0 0 -0.149196 -0.151758 -0.0964937 0.0214895 0 0 -1.64683 0 0 
241 1 241 0.380001 0.619954 0 0 -0.180233 -0.137483 -0.101875 0.0269702 0 0 -1.11139 0 0 
242 1 242 0.38004 0.659949 0 0 -0.187054 -0.0927066 -0.0896952 0.0448985 0 0 -0.281162 0 0 
243 1 243 0.380086 0.699948 0 0 -0.1765 -0.088241 -0.0848765 0.0654901 0 0 0.494668 0 0 
244 1 244 0.380134 0.739949 0 0 -0.117693 -0.0502435 -0.0538251 0.0672061 0 0 1.59673 0 0 
245 1 245 0.380174 0.779947 0 0 -0.0777431 -0.0628769 -0.0450663 0.0522595 0 0 1.48621 0 0 
246 1 246 0.3802 0.819942 0 0 -0.0216023 -0.0415583 -0.0202349 0.0287292 0 0 0.591398 0 0 
247 1 247 0.380212 0.859936 0 0 0.00404539 -0.0452477 -0.013199 0.00912453 0 0 0.366057 0 0 
248 1 248 0.380213 0.89993 0 0 0.0161435 -0.0168632 -0.000225742 0.00163272 0 0 0.362583 0 0 
249 1 249 0.380209 0.939926 0 0 -0.00401024 -0.0277934 -0.0101854 0.00471613 0 0 -1.12778 0 0 
250 1 250 0.380202 0.979925 0 0 0.00589829 0.0184137 0.00779538 0.00656499 0 0 -3.8664 0 0 
251 1 251 0.419983 0.0200036 0 0 0.0353922 0.0594489 0.0303832 -0.0680112 0 0 -0.567091 0 0 
252 1 252 0.419955 0.0600081 0 0 0.0301771 0.0327542 0.0201677 -0.0355512 0 0 -1.1532 0 0 
253 1 253 0.419939 0.100011 0 0 0.0317758 0.0264978 0.0186741 -0.0249794 0 0 0.0654443 0 0 
254 1 254 0.419925 0.140011 0 0 0.0324392 -0.00146036 0.00992992 -0.0370243 0 0 0.833893 0 0 
255 1 255 0.419908 0.180005 0 0 0.0290149 -0.0376301 -0.00275658 -0.0459697 0 0 0.455285 0 0 
256 1 256 0.419897 0.219995 0 0 0.011493 -0.0710587 -0.0190833 -0.0259112 0 0 -0.181253 0 0 
257 1 257 0.419893 0.259984 0 0 -0.0082164 -0.0543849 -0.0200561 -0.026919 0 0 -0.467481 0 0 
258 1 258 0.419882 0.299977 0 0 -0.06372 -0.0667823 -0.0418221 -0.0579618 0 0 -0.781163 0 0 
259 1 259 0.419861 0.339974 0 0 -0.108708 -0.0611796 -0.0544497 -0.0781739 0 0 -1.18003 0 0 
260 1 260 0.41984 0.379972 0 0 -0.142363 -0.0781538 -0.0706862 -0.0722661 0 0 -0.823956 0 0 
261 1 261 0.419833 0.419972 0 0 -0.149144 -0.0696651 -0.0701396 -0.0371867 0 0 -1.58812 0 0 
262 1 262 0.419847 0.459967 0 0 -0.172725 -0.125925 -0.0957571 -0.0121319 0 0 -1.74097 0 0 
263 1 263 0.419877 0.49996 0 0 -0.155487 -0.125925 -0.0902255 0.0151946 0 0 -1.27519 0 0 
264 1 264 0.419916 0.53995 0 0 -0.145896 -0.138776 -0.0912695 0.0210071 0 0 -0.928873 0 0 
265 1 265 0.419951 0.579939 0 0 -0.125841 -0.120787 -0.0790619 0.0140747 0 0 -0.943047 0 0 
266 1 266 0.419982 0.619932 0 0 -0.114669 -0.0894625 -0.0654326 0.0181043 0 0 -0.945654 0 0 
267 1 267 0.420016 0.659929 0 0 -0.105156 -0.0437977 -0.047738 0.0417382 0 0 -1.00028 0 0 
268 1 268 0.420063 0.69993 0 0 -0.101195 -0.0381629 -0.0446614 0.075201 0 0 -0.579119 0 0 
269 1 269 0.420117 0.739934 0 0 -0.0750919 -0.00398807 -0.0253377 0.0781275 0 0 0.709343 0 0 
270 1 270 0.420164 0.779936 0 0 -0.0591161 -0.0194372 -0.0251696 0.0659042 0 0 0.72644 0 0 
271 1 271 0.420197 0.819938 0 0 -0.0311409 -0.018596 -0.0159336 0.0440731 0 0 0.16039 0 0 
272 1 272 0.420213 0.859936 0 0 -0.013361 -0.0191396 -0.0104115 0.0145152 0 0 0.265945 0 0 
273 1 273 0.420215 0.899934 0 0 0.00320232 -0.00459139 -0.000441053 -0.000842145 0 0 0.488352 0 0 
274 1 274 0.420209 0.939933 0 0 -0.015602 -0.0220784 -0.0120694 -0.00272366 0 0 -0.503435 0 0 
275 1 275 0.4202 0.979934 0 0 -0.00252548 0.0365178 0.0108959 0.000153951 0 0 -2.68809 0 0 
276 1 276 0.459984 0.0200049 0 0 0.0522351 0.0814442 0.0428185 -0.0642283 0 0 -0.645423 0 0 
277 1 277 0.459959 0.0600097 0 0 0.0395104 0.0287925 0.0218889 -0.0419549 0 0 -0.873064 0 0 
278 1 278 0.459943 0.100011 0 0 0.0273087 0.0107333 0.0121943 -0.0290808 0 0 0.866749 0 0 
279 1 279 0.45993 0.140008 0 0 0.0195223 -0.0187729 0.000245834 -0.0363115 0 0 1.87045 0 0 
280 1 280 0.459916 0.18 0 0 0.01287 -0.0686223 -0.0178604 -0.0430197 0 0 2.16665 0 0 
281 1 281 0.459904 0.219987 0 0 -0.000874974 -0.0837627 -0.027118 -0.0316166 0 0 2.02014 0 0 
282 1 282 0.459894 0.259976 0 0 -0.0503606 -0.08091 -0.042068 -0.0448186 0 0 1.60743 0 0 
283 1 283 0.459875 0.299967 0 0 -0.112878 -0.102245 -0.0689587 -0.0721599 0 0 1.27966 0 0 
284 1 284 0.459848 0.339961 0 0 -0.12952 -0.0876033 -0.0695999 -0.0862749 0 0 1.20782 0 0 
285 1 285 0.459824 0.379956 0 0 -0.154941 -0.117331 -0.0872918 -0.0771504 0 0 1.40808 0 0 
286 1 286 0.459815 0.419948 0 0 -0.173072 -0.133061 -0.0981583 -0.0449436 0 0 0.602716 0 0 
287 1 287 0.459829 0.459938 0 0 -0.186603 -0.155018 -0.109551 -0.00986571 0 0 0.642544 0 0 
288 1 288 0.459862 0.499929 0 0 -0.172996 -0.133084 -0.0981439 0.0186222 0 0 1.23974 0 0 
289 1 289 0.459901 0.53992 0 0 -0.195078 -0.1455 -0.109212 0.0157089 0 0 1.64247 0 0 
290 1 290 0.459936 0.579914 0 0 -0.210048 -0.128906 -0.108689 0.0154344 0 0 1.83272 0 0 
291 1 291 0.459968 0.61991 0 0 -0.212773 -0.114057 -0.104799 0.017531 0 0 2.81071 0 0 
292 1 292 0.460002 0.65991 0 0 -0.205971 -0.0833503 -0.0927625 0.0434996 0 0 2.90941 0 0 
293 1 293 0.460048 0.699913 0 0 -0.190924 -0.0634693 -0.0815555 0.0829765 0 0 2.41924 0 0 
294 1 294 0.460103 0.73992 0 0 -0.149566 -0.0217486 -0.0549082 0.0862813 0 0 2.4917 0 0 
295 1 295 0.460153 0.779926 0 0 -0.111761 -0.012656 -0.0398721 0.0784682 0 0 1.37199 0 0 
296 1 296 0.460191 0.819933 0 0 -0.0684953 -0.00152606 -0.0224348 0.0497369 0 0 0.688544 0 0 
297 1 297 0.46021 0.859935 0 0 -0.0477488 -0.0129298 -0.0194412 0.0182469 0 0 0.712838 0 0 
298 1 298 0.460213 0.899937 0 0 -0.0279735 -0.000931208 -0.00925751 -0.00254236 0 0 0.870076 0 0 
299 1 299 0.460206 0.939938 0 0 -0.0503696 -0.0284073 -0.0252419 -0.0170231 0 0 0.71608 0 0 
300 1 300 0.460194 0.979941 0 0 -0.0429637 0.029623 -0.00426891 -0.00696543 0 0 -0.399494 0 0 
301 1 301 0.499987 0.020005 0 0 0.0688462 0.0877767 0.0501633 -0.052046 0 0 -0.488493 0 0 
302 1 302 0.499965 0.0600092 0 0 0.0814718 0.0431437 0.0399215 -0.0442198 0 0 -0.455407 0 0 
303 1 303 0.499949 0.100008 0 0 0.0731285 0.0203363 0.0299454 -0.0340328 0 0 1.09656 0 0 
304 1 304 0.499937 0.140004 0 0 0.059473 -0.0123142 0.0151135 -0.0343839 0 0 2.19324 0 0 
305 1 305 0.499925 0.179994 0 0 0.04175 -0.0605663 -0.00602373 -0.0408308 0 0 3.24762 0 0 
306 1 306 0.499911 0.219981 0 0 0.00346487 -0.0912988 -0.0281418 -0.0434359 0 0 3.25311 0 0 
307 1 307 0.499891 0.259968 0 0 -0.0500151 -0.0842471 -0.0430258 -0.0665388 0 0 2.7918 0 0 
308 1 308 0.499864 0.299959 0 0 -0.10895 -0.105817 -0.0688431 -0.0778037 0 0 2.3139 0 0 
309 1 309 0.499835 0.339951 0 0 -0.126896 -0.109834 -0.0758884 -0.0829971 0 0 1.98463 0 0 
310 1 310 0.49981 0.37994 0 0 -0.144003 -0.148093 -0.0936515 -0.073847 0 0 2.13674 0 0 
311 1 311 0.4998 0.419926 0 0 -0.153919 -0.171523 -0.104355 -0.0390906 0 0 1.80104 0 0 
312 1 312 0.499813 0.459911 0 0 -0.153303 -0.150868 -0.097532 -0.00154599 0 0 2.10601 0 0 
313 1 313 0.499844 0.499901 0 0 -0.17005 -0.138545 -0.0989518 0.0242214 0 0 2.27717 0 0 
314 1 314 0.499879 0.539892 0 0 -0.177127 -0.117874 -0.0945866 0.0191567 0 0 2.56502 0 0 
315 1 315 0.499912 0.579891 0 0 -0.145737 -0.0610117 -0.0662714 0.0256282 0 0 2.45589 0 0 
316 1 316 0.499943 0.619892 0 0 -0.120964 -0.0525401 -0.0556104 0.0291435 0 0 2.70323 0 0 
317 1 317 0.499977 0.659894 0 0 -0.0860101 -0.0176246 -0.0332076 0.0508324 0 0 2.51167 0 0 
318 1 318 0.500024 0.699899 0 0 -0.0850866 -0.0024313 -0.0280406 0.0888379 0 0 2.03419 0 0 
319 1 319 0.50008 0.739907 0 0 -0.0939795 0.016345 -0.0248729 0.0916735 0 0 2.04999 0 0 
320 1 320 0.500134 0.779916 0 0 -0.0961993 0.0175319 -0.0252055 0.0885117 0 0 1.15466 0 0 
321 1 321 0.500177 0.819927 0 0 -0.0837601 0.0213819 -0.0199843 0.057351 0 0 0.968208 0 0 
322 1 322 0.5002 0.859934 0 0 -0.073388 -0.00315254 -0.0245247 0.0233171 0 0 1.03023 0 0 
323 1 323 0.500206 0.899939 0 0 -0.0448152 0.00998928 -0.0111549 -0.00024908 0 0 1.08799 0 0 
324 1 324 0.500198 0.939943 0 0 -0.0667099 -0.0239605 -0.0290548 -0.0255731 0 0 1.64728 0 0 
325 1 325 0.500183 0.979947 0 0 -0.0594989 0.032936 -0.00850549 -0.0111993 0 0 1.47061 0 0 