ITEM: TIMESTEP
0
ITEM: NUMBER OF ATOMS
7127
ITEM: BOX BOUNDS sm sm sm
0 4
0 2
0 0
ITEM: ATOMS id type tag x y z vx 
0 1 0 0 0 0 0 
1 1 1 0 0.04 0 0 
2 1 2 0 0.08 0 0 
3 1 3 0 0.12 0 0 
4 1 4 0 0.16 0 0 
5 1 5 0 0.2 0 0 
6 1 6 0 0.24 0 0 
7 1 7 0 0.28 0 0 
8 1 8 0 0.32 0 0 
9 1 9 0 0.36 0 0 
10 1 10 0 0.4 0 0 
11 1 11 0 0.44 0 0 
12 1 12 0 0.48 0 0 
13 1 13 0 0.52 0 0 
14 1 14 0 0.56 0 0 
15 1 15 0 0.6 0 0 
16 1 16 0 0.64 0 0 
17 1 17 0 0.68 0 0 
18 1 18 0 0.72 0 0 
19 1 19 0 0.76 0 0 
20 1 20 0 0.8 0 0 
21 1 21 0 0.84 0 0 
22 1 22 0 0.88 0 0 
23 1 23 0 0.92 0 0 
24 1 24 0 0.96 0 0 
25 1 25 0 1 0 0 
26 1 26 0.04 0 0 0 
27 1 27 0.040003 0.0399998 0 0.410625 
28 1 28 0.0400022 0.0800015 0 0.390568 
29 1 29 0.0400015 0.119999 0 -0.0337388 
30 1 30 0.0399973 0.159997 0 -0.188905 
31 1 31 0.0399921 0.199993 0 -0.260135 
32 1 32 0.0399886 0.239992 0 -0.382857 
33 1 33 0.0399854 0.279991 0 -0.425408 
34 1 34 0.0399812 0.319993 0 -0.595712 
35 1 35 0.0399813 0.359992 0 -0.619977 
36 1 36 0.0399753 0.399993 0 -0.564089 
37 1 37 0.0399757 0.439991 0 -0.528272 
38 1 38 0.0399674 0.479994 0 -0.491368 
39 1 39 0.0399646 0.519994 0 -0.386259 
40 1 40 0.0399564 0.560001 0 -0.248101 
41 1 41 0.0399544 0.600003 0 -0.0799862 
42 1 42 0.039949 0.640011 0 0.0162264 
43 1 43 0.0399545 0.680013 0 0.247022 
44 1 44 0.0399452 0.72002 0 0.335759 
45 1 45 0.0399534 0.760023 0 0.336828 
46 1 46 0.0399444 0.800033 0 0.624122 
47 1 47 0.0399468 0.840043 0 0.425229 
48 1 48 0.0399442 0.880058 0 0.494214 
49 1 49 0.0399367 0.920071 0 0.426202 
50 1 50 0.0399325 0.960085 0 0.160505 
51 1 51 0.0398584 1.00015 0 0.267032 
52 1 52 0.08 0 0 0 
53 1 53 0.0800052 0.0400011 0 0.643998 
54 1 54 0.0800036 0.0800008 0 0.567627 
55 1 55 0.0800031 0.119997 0 -0.0161891 
56 1 56 0.079996 0.159995 0 -0.119337 
57 1 57 0.079987 0.199991 0 -0.225147 
58 1 58 0.0799785 0.23999 0 -0.496651 
59 1 59 0.0799699 0.27999 0 -0.673344 
60 1 60 0.0799627 0.319992 0 -0.895669 
61 1 61 0.0799623 0.359993 0 -0.824475 
62 1 62 0.0799531 0.399994 0 -0.727016 
63 1 63 0.0799503 0.439993 0 -0.682836 
64 1 64 0.0799353 0.479995 0 -0.64821 
65 1 65 0.0799256 0.519999 0 -0.565686 
66 1 66 0.0799117 0.560007 0 -0.403039 
67 1 67 0.0799039 0.600017 0 -0.200403 
68 1 68 0.0798985 0.640027 0 -0.000339346 
69 1 69 0.0799004 0.680038 0 0.221667 
70 1 70 0.0798968 0.720044 0 0.473839 
71 1 71 0.0798936 0.760059 0 0.660896 
72 1 72 0.0798894 0.800067 0 1.13682 
73 1 73 0.0798786 0.840091 0 1.02977 
74 1 74 0.0798809 0.880106 0 0.943905 
75 1 75 0.0798688 0.920133 0 0.799597 
76 1 76 0.0798356 0.960176 0 0.44649 
77 1 77 0.0797847 1.0002 0 0.536102 
78 1 78 0.12 0 0 0 
79 1 79 0.120005 0.0399996 0 0.697082 
80 1 80 0.120004 0.0799981 0 0.584616 
81 1 81 0.120002 0.119994 0 0.041455 
82 1 82 0.119994 0.159994 0 -0.00597234 
83 1 83 0.119983 0.199991 0 -0.127048 
84 1 84 0.119969 0.239992 0 -0.367329 
85 1 85 0.119956 0.279993 0 -0.589151 
86 1 86 0.119946 0.319996 0 -0.781181 
87 1 87 0.119943 0.359998 0 -0.647975 
88 1 88 0.119931 0.399999 0 -0.562871 
89 1 89 0.119924 0.44 0 -0.50593 
90 1 90 0.119904 0.480004 0 -0.485778 
91 1 91 0.119888 0.52001 0 -0.440794 
92 1 92 0.119868 0.56002 0 -0.287072 
93 1 93 0.119856 0.600034 0 -0.174267 
94 1 94 0.11985 0.640048 0 0.082117 
95 1 95 0.119847 0.680065 0 0.209908 
96 1 96 0.119844 0.720079 0 0.393636 
97 1 97 0.119838 0.760094 0 0.892132 
98 1 98 0.119826 0.800114 0 1.48341 
99 1 99 0.119816 0.840131 0 1.6355 
100 1 100 0.119809 0.880159 0 1.52516 
101 1 101 0.119789 0.920188 0 1.10887 
102 1 102 0.119756 0.96022 0 0.808518 
103 1 103 0.11971 1.00026 0 0.929306 
104 1 104 0.16 0 0 0 
105 1 105 0.160003 0.0399966 0 0.518756 
106 1 106 0.160003 0.0799939 0 0.500457 
107 1 107 0.160001 0.119992 0 0.158782 
108 1 108 0.159991 0.159992 0 0.134858 
109 1 109 0.159976 0.199991 0 0.0820148 
110 1 110 0.159958 0.239994 0 -0.049555 
111 1 111 0.159941 0.279998 0 -0.331796 
112 1 112 0.159928 0.320002 0 -0.484259 
113 1 113 0.159922 0.360006 0 -0.282806 
114 1 114 0.159909 0.400009 0 -0.141205 
115 1 115 0.159897 0.440012 0 0.00210059 
116 1 116 0.159871 0.480018 0 -0.0183793 
117 1 117 0.159848 0.520026 0 -0.0564161 
118 1 118 0.159821 0.560038 0 -0.00960445 
119 1 119 0.159803 0.600054 0 -0.0525501 
120 1 120 0.159793 0.640071 0 0.136968 
121 1 121 0.159788 0.68009 0 0.251413 
122 1 122 0.159783 0.720111 0 0.39739 
123 1 123 0.159774 0.760131 0 0.984463 
124 1 124 0.159759 0.800155 0 1.64046 
125 1 125 0.159748 0.840178 0 1.98618 
126 1 126 0.159733 0.880205 0 1.92839 
127 1 127 0.159713 0.920239 0 1.35151 
128 1 128 0.159681 0.960268 0 1.16988 
129 1 129 0.15963 1.0003 0 1.40264 
130 1 130 0.2 0 0 0 
131 1 131 0.200001 0.039994 0 0.190043 
132 1 132 0.200002 0.0799912 0 0.220204 
133 1 133 0.199999 0.11999 0 0.106932 
134 1 134 0.199986 0.15999 0 0.170806 
135 1 135 0.199968 0.199991 0 0.306108 
136 1 136 0.199945 0.239997 0 0.287248 
137 1 137 0.199925 0.280001 0 0.0136953 
138 1 138 0.199909 0.320008 0 -0.00303192 
139 1 139 0.199897 0.360014 0 0.224311 
140 1 140 0.199882 0.400021 0 0.292267 
141 1 141 0.199866 0.440027 0 0.400833 
142 1 142 0.199837 0.480034 0 0.321418 
143 1 143 0.199809 0.520044 0 0.248278 
144 1 144 0.199775 0.560056 0 0.230433 
145 1 145 0.199754 0.600073 0 0.142503 
146 1 146 0.199739 0.640093 0 0.294455 
147 1 147 0.199731 0.680116 0 0.369036 
148 1 148 0.199722 0.720141 0 0.619762 
149 1 149 0.199707 0.760168 0 1.16797 
150 1 150 0.199691 0.800195 0 1.71314 
151 1 151 0.199676 0.840225 0 2.16167 
152 1 152 0.199657 0.880253 0 2.06176 
153 1 153 0.199639 0.920285 0 1.53102 
154 1 154 0.199605 0.960318 0 1.61516 
155 1 155 0.199557 1.00035 0 1.93875 
156 1 156 0.24 0 0 0 
157 1 157 0.239997 0.0399938 0 -0.147399 
158 1 158 0.239998 0.0799897 0 -0.179751 
159 1 159 0.239993 0.119988 0 -0.0548157 
160 1 160 0.239976 0.159989 0 0.116905 
161 1 161 0.239957 0.199993 0 0.297473 
162 1 162 0.239928 0.24 0 0.308892 
163 1 163 0.239904 0.280005 0 0.174737 
164 1 164 0.239883 0.320015 0 0.288343 
165 1 165 0.239867 0.360024 0 0.434918 
166 1 166 0.239851 0.400034 0 0.452905 
167 1 167 0.239831 0.440044 0 0.569939 
168 1 168 0.239798 0.480053 0 0.513586 
169 1 169 0.239765 0.520065 0 0.476169 
170 1 170 0.239725 0.560077 0 0.427884 
171 1 171 0.239699 0.600094 0 0.306443 
172 1 172 0.239675 0.640114 0 0.450484 
173 1 173 0.239661 0.68014 0 0.548747 
174 1 174 0.239648 0.720169 0 0.865676 
175 1 175 0.239631 0.760201 0 1.41422 
176 1 176 0.239613 0.800234 0 1.89957 
177 1 177 0.239599 0.840266 0 2.32198 
178 1 178 0.23958 0.880299 0 2.14309 
179 1 179 0.239563 0.920332 0 1.7302 
180 1 180 0.239531 0.960363 0 2.01385 
181 1 181 0.239483 1.0004 0 2.33827 
182 1 182 0.28 0 0 0 
183 1 183 0.279999 0.0399949 0 -0.425483 
184 1 184 0.279996 0.0799907 0 -0.518576 
185 1 185 0.279987 0.11999 0 -0.260203 
186 1 186 0.279966 0.159992 0 -0.0991941 
187 1 187 0.279942 0.199997 0 -0.00631773 
188 1 188 0.279907 0.240004 0 0.0578999 
189 1 189 0.279879 0.280012 0 0.153052 
190 1 190 0.279854 0.320024 0 0.286451 
191 1 191 0.279832 0.360035 0 0.28793 
192 1 192 0.279813 0.400048 0 0.311029 
193 1 193 0.279789 0.440061 0 0.406893 
194 1 194 0.279756 0.480073 0 0.366476 
195 1 195 0.27972 0.520086 0 0.41129 
196 1 196 0.279677 0.560099 0 0.433141 
197 1 197 0.279646 0.600115 0 0.419593 
198 1 198 0.279617 0.640136 0 0.640964 
199 1 199 0.279597 0.680163 0 0.949208 
200 1 200 0.279575 0.720197 0 1.37665 
201 1 201 0.279554 0.760233 0 1.74439 
202 1 202 0.279537 0.80027 0 2.08982 
203 1 203 0.27952 0.840307 0 2.38884 
204 1 204 0.279501 0.880341 0 2.20871 
205 1 205 0.279486 0.920377 0 2.05165 
206 1 206 0.279456 0.960412 0 2.46546 
207 1 207 0.279412 1.00044 0 2.75161 
208 1 208 0.32 0 0 0 
209 1 209 0.319998 0.0399966 0 -0.662095 
210 1 210 0.319991 0.0799938 0 -0.753469 
211 1 211 0.319979 0.119993 0 -0.527975 
212 1 212 0.319952 0.159996 0 -0.453798 
213 1 213 0.319922 0.200003 0 -0.396317 
214 1 214 0.319883 0.240011 0 -0.316461 
215 1 215 0.31985 0.280022 0 -0.112947 
216 1 216 0.319818 0.320034 0 -0.0259198 
217 1 217 0.31979 0.360047 0 -0.104717 
218 1 218 0.319769 0.400064 0 -0.106603 
219 1 219 0.319743 0.44008 0 -0.104828 
220 1 220 0.319709 0.480095 0 -0.0373737 
221 1 221 0.31967 0.520109 0 0.174498 
222 1 222 0.319625 0.560123 0 0.335754 
223 1 223 0.319588 0.600139 0 0.546919 
224 1 224 0.319549 0.64016 0 0.862045 
225 1 225 0.319521 0.680187 0 1.32662 
226 1 226 0.319493 0.720222 0 1.90955 
227 1 227 0.31947 0.760262 0 2.23473 
228 1 228 0.319453 0.800303 0 2.46795 
229 1 229 0.319438 0.840343 0 2.63177 
230 1 230 0.319421 0.880381 0 2.55075 
231 1 231 0.319405 0.92042 0 2.55197 
232 1 232 0.31938 0.960458 0 2.90589 
233 1 233 0.319342 1.00049 0 3.1299 
234 1 234 0.36 0 0 0 
235 1 235 0.359998 0.0399984 0 -0.741535 
236 1 236 0.359987 0.0799976 0 -0.831446 
237 1 237 0.359969 0.12 0 -0.727248 
238 1 238 0.359937 0.160005 0 -0.730858 
239 1 239 0.359901 0.200013 0 -0.7191 
240 1 240 0.359858 0.240022 0 -0.761361 
241 1 241 0.359819 0.280033 0 -0.544496 
242 1 242 0.35978 0.320045 0 -0.455961 
243 1 243 0.359749 0.360061 0 -0.575401 
244 1 244 0.359721 0.400079 0 -0.619495 
245 1 245 0.359693 0.440098 0 -0.664104 
246 1 246 0.35966 0.480116 0 -0.44168 
247 1 247 0.35962 0.520132 0 -0.0922663 
248 1 248 0.359575 0.560147 0 0.16891 
249 1 249 0.359534 0.600164 0 0.568345 
250 1 250 0.359491 0.640186 0 1.05152 
251 1 251 0.359456 0.680215 0 1.74644 
252 1 252 0.359419 0.720252 0 2.41419 
253 1 253 0.359393 0.760292 0 2.74908 
254 1 254 0.359373 0.800335 0 2.95991 
255 1 255 0.359357 0.840377 0 2.95983 
256 1 256 0.359342 0.880418 0 3.02157 
257 1 257 0.359324 0.92046 0 3.10517 
258 1 258 0.359304 0.9605 0 3.29186 
259 1 259 0.359275 1.00053 0 3.48302 
260 1 260 0.4 0 0 0 
261 1 261 0.399995 0.0400002 0 -0.694494 
262 1 262 0.399979 0.0800023 0 -0.833472 
263 1 263 0.399956 0.120007 0 -0.822209 
264 1 264 0.399918 0.160014 0 -0.895775 
265 1 265 0.399876 0.200024 0 -0.934927 
266 1 266 0.39983 0.240033 0 -1.01918 
267 1 267 0.399786 0.280045 0 -0.750381 
268 1 268 0.399741 0.320058 0 -0.684129 
269 1 269 0.399705 0.360075 0 -0.935655 
270 1 270 0.399672 0.400093 0 -1.07033 
271 1 271 0.399641 0.440115 0 -1.11345 
272 1 272 0.399606 0.480137 0 -0.826133 
273 1 273 0.399566 0.520155 0 -0.416275 
274 1 274 0.399521 0.560174 0 0.0306528 
275 1 275 0.399473 0.600192 0 0.610055 
276 1 276 0.399422 0.640216 0 1.20934 
277 1 277 0.399378 0.680245 0 2.09225 
278 1 278 0.399336 0.720283 0 2.80965 
279 1 279 0.399311 0.760323 0 3.18713 
280 1 280 0.399289 0.800366 0 3.4301 
281 1 281 0.399276 0.840409 0 3.3613 
282 1 282 0.399263 0.88045 0 3.58081 
283 1 283 0.399243 0.920492 0 3.64646 
284 1 284 0.399228 0.960532 0 3.64056 
285 1 285 0.399207 1.00057 0 3.82681 
286 1 286 0.44 0 0 0 
287 1 287 0.43999 0.0400013 0 -0.624821 
288 1 288 0.439969 0.0800072 0 -0.799922 
289 1 289 0.43994 0.120015 0 -0.800778 
290 1 290 0.4399 0.160024 0 -0.929695 
291 1 291 0.439853 0.200034 0 -0.984609 
292 1 292 0.439803 0.240043 0 -1.08221 
293 1 293 0.439755 0.280057 0 -0.922057 
294 1 294 0.439706 0.320069 0 -0.879245 
295 1 295 0.439663 0.360087 0 -1.05044 
296 1 296 0.439622 0.400106 0 -1.17895 
297 1 297 0.439588 0.440129 0 -1.21673 
298 1 298 0.439552 0.480153 0 -0.9195 
299 1 299 0.439512 0.520176 0 -0.508009 
300 1 300 0.439468 0.560198 0 0.0729276 
301 1 301 0.439417 0.600221 0 0.746534 
302 1 302 0.439364 0.640248 0 1.38612 
303 1 303 0.439314 0.680281 0 2.3047 
304 1 304 0.439267 0.720318 0 3.03332 
305 1 305 0.439239 0.760358 0 3.53349 
306 1 306 0.439214 0.800399 0 3.80846 
307 1 307 0.439201 0.840439 0 3.69786 
308 1 308 0.439187 0.88048 0 4.01587 
309 1 309 0.439166 0.920519 0 4.0502 
310 1 310 0.439153 0.960557 0 3.96807 
311 1 311 0.439136 1.00059 0 4.18801 
312 1 312 0.48 0 0 0 
313 1 313 0.47998 0.040002 0 -0.582473 
314 1 314 0.479954 0.0800093 0 -0.795279 
315 1 315 0.479922 0.120019 0 -0.811661 
316 1 316 0.479878 0.160029 0 -0.997372 
317 1 317 0.479828 0.20004 0 -1.04187 
318 1 318 0.479775 0.240051 0 -1.07347 
319 1 319 0.479722 0.280065 0 -1.01715 
320 1 320 0.479668 0.320079 0 -0.94165 
321 1 321 0.479619 0.360098 0 -0.932357 
322 1 322 0.479572 0.40012 0 -1.0327 
323 1 323 0.479533 0.440146 0 -1.02243 
324 1 324 0.479492 0.480173 0 -0.734129 
325 1 325 0.479452 0.520201 0 -0.337788 
326 1 326 0.479406 0.560227 0 0.304451 
327 1 327 0.47935 0.600254 0 0.975457 
328 1 328 0.479291 0.640284 0 1.66926 
329 1 329 0.479234 0.680317 0 2.50609 
330 1 330 0.479187 0.720352 0 3.1173 
331 1 331 0.47916 0.760389 0 3.6605 
332 1 332 0.479136 0.800428 0 3.99357 
333 1 333 0.479126 0.840465 0 3.99192 
334 1 334 0.479114 0.880503 0 4.31408 
335 1 335 0.479093 0.920538 0 4.2973 
336 1 336 0.479079 0.960574 0 4.22764 
337 1 337 0.479062 1.00061 0 4.44869 
338 1 338 0.52 0 0 0 
339 1 339 0.519972 0.0400023 0 -0.577774 
340 1 340 0.519941 0.0800096 0 -0.957067 
341 1 341 0.519902 0.120021 0 -1.03451 
342 1 342 0.519857 0.160033 0 -1.1773 
343 1 343 0.519804 0.200045 0 -1.1639 
344 1 344 0.519747 0.240057 0 -1.09589 
345 1 345 0.519689 0.280073 0 -1.07526 
346 1 346 0.51963 0.320089 0 -0.933385 
347 1 347 0.519575 0.36011 0 -0.731477 
348 1 348 0.51952 0.400133 0 -0.718469 
349 1 349 0.519474 0.440161 0 -0.551248 
350 1 350 0.519431 0.480192 0 -0.296564 
351 1 351 0.519392 0.520222 0 0.059515 
352 1 352 0.519344 0.560253 0 0.76147 
353 1 353 0.519287 0.600284 0 1.39058 
354 1 354 0.519229 0.640318 0 2.08493 
355 1 355 0.51917 0.680353 0 2.76848 
356 1 356 0.519123 0.720387 0 3.29879 
357 1 357 0.519093 0.760421 0 3.83654 
358 1 358 0.51907 0.800455 0 4.14013 
359 1 359 0.519058 0.840488 0 4.26571 
360 1 360 0.519044 0.880523 0 4.48007 
361 1 361 0.519025 0.920554 0 4.43986 
362 1 362 0.519005 0.960589 0 4.45141 
363 1 363 0.518986 1.00062 0 4.61052 
364 1 364 0.56 0 0 0 
365 1 365 0.559959 0.0400027 0 -0.548698 
366 1 366 0.559922 0.0800115 0 -1.07542 
367 1 367 0.559879 0.120024 0 -1.2367 
368 1 368 0.559831 0.160037 0 -1.39991 
369 1 369 0.559775 0.20005 0 -1.44311 
370 1 370 0.559713 0.240065 0 -1.38526 
371 1 371 0.559652 0.280083 0 -1.38613 
372 1 372 0.559587 0.320102 0 -1.09266 
373 1 373 0.559525 0.360125 0 -0.589744 
374 1 374 0.559466 0.40015 0 -0.325752 
375 1 375 0.559413 0.440179 0 0.0318592 
376 1 376 0.559365 0.480211 0 0.279321 
377 1 377 0.559322 0.520244 0 0.613533 
378 1 378 0.559272 0.560278 0 1.30994 
379 1 379 0.559212 0.600312 0 1.93411 
380 1 380 0.559149 0.640346 0 2.62089 
381 1 381 0.559088 0.680379 0 3.05267 
382 1 382 0.559045 0.720412 0 3.50829 
383 1 383 0.559015 0.760444 0 4.03769 
384 1 384 0.558997 0.800476 0 4.3293 
385 1 385 0.558988 0.840507 0 4.58292 
386 1 386 0.558974 0.88054 0 4.57181 
387 1 387 0.558958 0.920571 0 4.49887 
388 1 388 0.558932 0.960604 0 4.56532 
389 1 389 0.55891 1.00064 0 4.57944 
390 1 390 0.6 0 0 0 
391 1 391 0.59995 0.0400034 0 -0.527015 
392 1 392 0.599904 0.0800145 0 -1.13941 
393 1 393 0.599854 0.120028 0 -1.49407 
394 1 394 0.599804 0.160043 0 -1.73425 
395 1 395 0.599743 0.200059 0 -1.79186 
396 1 396 0.599677 0.240077 0 -1.72738 
397 1 397 0.599611 0.280097 0 -1.68722 
398 1 398 0.599543 0.320117 0 -1.281 
399 1 399 0.599477 0.360142 0 -0.552159 
400 1 400 0.599411 0.400166 0 -0.0218279 
401 1 401 0.599352 0.440194 0 0.473445 
402 1 402 0.599301 0.480224 0 0.753522 
403 1 403 0.599255 0.520257 0 1.16391 
404 1 404 0.599202 0.560292 0 1.8158 
405 1 405 0.599145 0.600329 0 2.4398 
406 1 406 0.599084 0.640365 0 3.16977 
407 1 407 0.599026 0.680399 0 3.41896 
408 1 408 0.598984 0.720432 0 3.82075 
409 1 409 0.598951 0.760463 0 4.2527 
410 1 410 0.598934 0.800493 0 4.51565 
411 1 411 0.59892 0.840524 0 4.91601 
412 1 412 0.598904 0.880557 0 4.70535 
413 1 413 0.598891 0.920589 0 4.60793 
414 1 414 0.598861 0.960621 0 4.59371 
415 1 415 0.598839 1.00065 0 4.36 
416 1 416 0.64 0 0 0 
417 1 417 0.639936 0.0400049 0 -0.41978 
418 1 418 0.639882 0.0800159 0 -1.05809 
419 1 419 0.639827 0.120031 0 -1.68015 
420 1 420 0.639771 0.160049 0 -1.99236 
421 1 421 0.639706 0.200069 0 -2.05504 
422 1 422 0.639637 0.240089 0 -2.05514 
423 1 423 0.639567 0.28011 0 -1.95301 
424 1 424 0.639495 0.320133 0 -1.4988 
425 1 425 0.639426 0.360157 0 -0.647161 
426 1 426 0.639358 0.400181 0 0.181958 
427 1 427 0.639292 0.440207 0 0.842404 
428 1 428 0.639236 0.480235 0 1.18123 
429 1 429 0.639183 0.520268 0 1.62398 
430 1 430 0.639126 0.560304 0 2.18405 
431 1 431 0.639066 0.60034 0 2.79836 
432 1 432 0.639001 0.640376 0 3.49841 
433 1 433 0.638945 0.680409 0 3.63249 
434 1 434 0.638906 0.720441 0 4.06895 
435 1 435 0.638873 0.760472 0 4.44405 
436 1 436 0.638859 0.800504 0 4.71181 
437 1 437 0.638846 0.840538 0 5.16526 
438 1 438 0.638831 0.880572 0 4.78315 
439 1 439 0.63882 0.920607 0 4.71371 
440 1 440 0.638791 0.96064 0 4.57084 
441 1 441 0.638772 1.00067 0 4.08716 
442 1 442 0.68 0 0 0 
443 1 443 0.679927 0.0400049 0 -0.24768 
444 1 444 0.679862 0.0800155 0 -0.854972 
445 1 445 0.679798 0.120033 0 -1.62982 
446 1 446 0.679735 0.160052 0 -2.01133 
447 1 447 0.679668 0.200075 0 -2.16174 
448 1 448 0.679596 0.240096 0 -2.21277 
449 1 449 0.679523 0.28012 0 -1.99975 
450 1 450 0.67945 0.320144 0 -1.49199 
451 1 451 0.679378 0.360167 0 -0.567174 
452 1 452 0.679307 0.40019 0 0.416333 
453 1 453 0.679238 0.440213 0 1.11689 
454 1 454 0.679177 0.480239 0 1.51139 
455 1 455 0.679117 0.52027 0 1.91271 
456 1 456 0.679057 0.560306 0 2.32342 
457 1 457 0.678999 0.600344 0 2.92027 
458 1 458 0.678938 0.640381 0 3.52164 
459 1 459 0.678885 0.680416 0 3.55659 
460 1 460 0.678845 0.720449 0 4.00476 
461 1 461 0.678808 0.760481 0 4.36732 
462 1 462 0.678792 0.800514 0 4.71856 
463 1 463 0.678772 0.840551 0 5.21246 
464 1 464 0.678756 0.880586 0 4.82239 
465 1 465 0.678748 0.920625 0 4.81086 
466 1 466 0.678724 0.960659 0 4.50472 
467 1 467 0.678711 1.00069 0 3.85129 
468 1 468 0.72 0 0 0 
469 1 469 0.719915 0.040002 0 -0.178427 
470 1 470 0.71984 0.080011 0 -0.761861 
471 1 471 0.719769 0.120026 0 -1.55755 
472 1 472 0.719699 0.160046 0 -1.88821 
473 1 473 0.719626 0.20007 0 -1.99723 
474 1 474 0.719552 0.240094 0 -1.95006 
475 1 475 0.719476 0.280121 0 -1.64883 
476 1 476 0.719402 0.320145 0 -1.20911 
477 1 477 0.719331 0.36017 0 -0.327001 
478 1 478 0.719258 0.400193 0 0.648663 
479 1 479 0.719185 0.440217 0 1.30969 
480 1 480 0.719116 0.480244 0 1.77901 
481 1 481 0.719046 0.520277 0 2.10784 
482 1 482 0.718981 0.560313 0 2.34611 
483 1 483 0.718919 0.600351 0 2.8278 
484 1 484 0.718856 0.640387 0 3.25266 
485 1 485 0.718805 0.680419 0 3.29442 
486 1 486 0.718765 0.720451 0 3.76065 
487 1 487 0.718729 0.760484 0 4.11413 
488 1 488 0.718711 0.800519 0 4.54248 
489 1 489 0.718692 0.840558 0 5.07215 
490 1 490 0.718678 0.880596 0 4.86633 
491 1 491 0.718671 0.920637 0 4.9067 
492 1 492 0.718657 0.960672 0 4.47284 
493 1 493 0.718656 1.0007 0 3.81074 
494 1 494 0.76 0 0 0 
495 1 495 0.759909 0.0399987 0 -0.195938 
496 1 496 0.759822 0.0800032 0 -0.662951 
497 1 497 0.759741 0.120015 0 -1.35648 
498 1 498 0.759664 0.160033 0 -1.64732 
499 1 499 0.759587 0.200057 0 -1.68357 
500 1 500 0.75951 0.240082 0 -1.45888 
501 1 501 0.759431 0.280109 0 -1.00829 
502 1 502 0.759357 0.320136 0 -0.619512 
503 1 503 0.759284 0.360163 0 0.114608 
504 1 504 0.75921 0.400189 0 1.02226 
505 1 505 0.759133 0.440215 0 1.66065 
506 1 506 0.75906 0.480244 0 2.11209 
507 1 507 0.758983 0.520278 0 2.27948 
508 1 508 0.758914 0.560316 0 2.35848 
509 1 509 0.758853 0.600356 0 2.61515 
510 1 510 0.758797 0.640393 0 2.78641 
511 1 511 0.758749 0.680426 0 2.92102 
512 1 512 0.758705 0.720458 0 3.38863 
513 1 513 0.758666 0.76049 0 3.75321 
514 1 514 0.758641 0.800524 0 4.25383 
515 1 515 0.758616 0.840562 0 4.76777 
516 1 516 0.758601 0.8806 0 4.84132 
517 1 517 0.758595 0.920641 0 4.94691 
518 1 518 0.758594 0.960676 0 4.47924 
519 1 519 0.758603 1.0007 0 3.95339 
520 1 520 0.8 0 0 0 
521 1 521 0.799902 0.0399952 0 -0.189463 
522 1 522 0.799808 0.0799935 0 -0.564027 
523 1 523 0.799717 0.120001 0 -1.08329 
524 1 524 0.79963 0.160016 0 -1.26739 
525 1 525 0.799547 0.200038 0 -1.17082 
526 1 526 0.799467 0.240063 0 -0.772267 
527 1 527 0.799384 0.280091 0 -0.217643 
528 1 528 0.799308 0.320121 0 0.174493 
529 1 529 0.799233 0.360151 0 0.690279 
530 1 530 0.799159 0.400181 0 1.3559 
531 1 531 0.799079 0.440212 0 1.91532 
532 1 532 0.798996 0.480246 0 2.35449 
533 1 533 0.79891 0.520284 0 2.42851 
534 1 534 0.798837 0.560324 0 2.42712 
535 1 535 0.798772 0.600363 0 2.46707 
536 1 536 0.798716 0.640398 0 2.44957 
537 1 537 0.798668 0.680428 0 2.68376 
538 1 538 0.798626 0.720458 0 3.04116 
539 1 539 0.798588 0.760488 0 3.42946 
540 1 540 0.798561 0.80052 0 4.01132 
541 1 541 0.798538 0.840557 0 4.45719 
542 1 542 0.798525 0.880594 0 4.78174 
543 1 543 0.798519 0.920633 0 4.93306 
544 1 544 0.79853 0.960667 0 4.551 
545 1 545 0.798548 1.0007 0 4.2721 
546 1 546 0.84 0 0 0 
547 1 547 0.839901 0.0399911 0 -0.238237 
548 1 548 0.839797 0.0799864 0 -0.564583 
549 1 549 0.839696 0.11999 0 -0.825385 
550 1 550 0.8396 0.160002 0 -0.811629 
551 1 551 0.839511 0.200021 0 -0.573828 
552 1 552 0.839425 0.240046 0 -0.0180974 
553 1 553 0.839339 0.280075 0 0.585701 
554 1 554 0.839261 0.320106 0 0.947182 
555 1 555 0.839183 0.360138 0 1.2469 
556 1 556 0.839107 0.400172 0 1.67625 
557 1 557 0.839023 0.440207 0 2.16676 
558 1 558 0.838936 0.480243 0 2.60277 
559 1 559 0.838846 0.520282 0 2.64161 
560 1 560 0.83877 0.560322 0 2.59351 
561 1 561 0.838707 0.600362 0 2.43736 
562 1 562 0.83866 0.640397 0 2.29286 
563 1 563 0.838617 0.680428 0 2.61612 
564 1 564 0.838571 0.720456 0 2.86606 
565 1 565 0.838532 0.760483 0 3.25262 
566 1 566 0.838497 0.800512 0 3.79997 
567 1 567 0.838469 0.840545 0 4.15831 
568 1 568 0.838454 0.880579 0 4.71116 
569 1 569 0.838449 0.920615 0 4.90711 
570 1 570 0.838467 0.960648 0 4.72299 
571 1 571 0.83849 1.00068 0 4.74916 
572 1 572 0.88 0 0 0 
573 1 573 0.879896 0.0399887 0 -0.218397 
574 1 574 0.879786 0.0799829 0 -0.398788 
575 1 575 0.879677 0.119984 0 -0.390449 
576 1 576 0.879572 0.159994 0 -0.276624 
577 1 577 0.879474 0.200012 0 0.014236 
578 1 578 0.879382 0.240038 0 0.678991 
579 1 579 0.879292 0.280066 0 1.31928 
580 1 580 0.879211 0.320098 0 1.62658 
581 1 581 0.879128 0.360132 0 1.64009 
582 1 582 0.87905 0.400168 0 1.82538 
583 1 583 0.878962 0.440206 0 2.26446 
584 1 584 0.878869 0.480245 0 2.68547 
585 1 585 0.878774 0.520285 0 2.76047 
586 1 586 0.878696 0.560322 0 2.76481 
587 1 587 0.87863 0.600358 0 2.52732 
588 1 588 0.878582 0.640388 0 2.3372 
589 1 589 0.878539 0.680416 0 2.73899 
590 1 590 0.878498 0.72044 0 2.92714 
591 1 591 0.878462 0.760466 0 3.2625 
592 1 592 0.878425 0.800493 0 3.68351 
593 1 593 0.8784 0.840522 0 3.94439 
594 1 594 0.878386 0.880554 0 4.62731 
595 1 595 0.878379 0.920586 0 4.86977 
596 1 596 0.878399 0.960619 0 4.90178 
597 1 597 0.878425 1.00065 0 5.17145 
598 1 598 0.92 0 0 0 
599 1 599 0.919893 0.0399882 0 -0.151323 
600 1 600 0.919776 0.0799827 0 -0.183145 
601 1 601 0.919658 0.119984 0 0.0234136 
602 1 602 0.919545 0.159995 0 0.223478 
603 1 603 0.91944 0.200013 0 0.589561 
604 1 604 0.919341 0.240038 0 1.2783 
605 1 605 0.919247 0.280065 0 1.84786 
606 1 606 0.919162 0.320097 0 2.11567 
607 1 607 0.919074 0.360131 0 1.93752 
608 1 608 0.918994 0.400165 0 1.88368 
609 1 609 0.918905 0.440202 0 2.17674 
610 1 610 0.91881 0.480238 0 2.60625 
611 1 611 0.918715 0.520273 0 2.84707 
612 1 612 0.918637 0.560306 0 2.95374 
613 1 613 0.918574 0.600338 0 2.73829 
614 1 614 0.918534 0.640367 0 2.59473 
615 1 615 0.918494 0.680395 0 2.99676 
616 1 616 0.918452 0.720418 0 3.07731 
617 1 617 0.918413 0.760442 0 3.32854 
618 1 618 0.918371 0.800466 0 3.65914 
619 1 619 0.918339 0.840492 0 3.83831 
620 1 620 0.918322 0.880522 0 4.51291 
621 1 621 0.918314 0.920551 0 4.83587 
622 1 622 0.918332 0.960584 0 5.10106 
623 1 623 0.918356 1.00062 0 5.52774 
624 1 624 0.96 0 0 0 
625 1 625 0.959883 0.039989 0 -0.114729 
626 1 626 0.959762 0.0799851 0 -0.00538404 
627 1 627 0.959639 0.119988 0 0.383664 
628 1 628 0.959519 0.159999 0 0.706009 
629 1 629 0.959405 0.200017 0 1.09557 
630 1 630 0.959301 0.240042 0 1.68911 
631 1 631 0.959201 0.280069 0 2.11528 
632 1 632 0.95911 0.320099 0 2.28642 
633 1 633 0.959019 0.360131 0 1.97609 
634 1 634 0.958935 0.400163 0 1.77173 
635 1 635 0.958843 0.440198 0 1.90376 
636 1 636 0.958747 0.480231 0 2.32234 
637 1 637 0.958652 0.520263 0 2.7416 
638 1 638 0.958573 0.560291 0 3.01441 
639 1 639 0.958508 0.600316 0 2.99112 
640 1 640 0.958461 0.64034 0 2.96505 
641 1 641 0.958422 0.680364 0 3.33642 
642 1 642 0.958384 0.720386 0 3.39603 
643 1 643 0.958346 0.760409 0 3.54915 
644 1 644 0.958306 0.800432 0 3.7331 
645 1 645 0.958274 0.840457 0 3.81613 
646 1 646 0.958257 0.880485 0 4.404 
647 1 647 0.958247 0.920513 0 4.8264 
648 1 648 0.95826 0.960546 0 5.28291 
649 1 649 0.958282 1.00058 0 5.77436 
650 1 650 1 0 0 0 
651 1 651 0.999876 0.0399892 0 -0.107833 
652 1 652 0.999748 0.0799881 0 0.0877248 
653 1 653 0.999618 0.119993 0 0.548992 
654 1 654 0.999493 0.160004 0 0.938256 
655 1 655 0.999374 0.200022 0 1.32522 
656 1 656 0.999263 0.240045 0 1.84252 
657 1 657 0.999159 0.280071 0 2.2076 
658 1 658 0.999064 0.320098 0 2.32802 
659 1 659 0.99897 0.360126 0 1.92073 
660 1 660 0.998882 0.400155 0 1.59572 
661 1 661 0.998788 0.440185 0 1.60189 
662 1 662 0.998696 0.480211 0 2.04263 
663 1 663 0.998604 0.520235 0 2.62696 
664 1 664 0.998526 0.560256 0 3.05511 
665 1 665 0.998464 0.600278 0 3.2519 
666 1 666 0.99842 0.640301 0 3.33337 
667 1 667 0.998381 0.680326 0 3.65259 
668 1 668 0.99834 0.720349 0 3.72823 
669 1 669 0.998298 0.760372 0 3.77582 
670 1 670 0.998255 0.800395 0 3.87955 
671 1 671 0.998216 0.840419 0 3.95513 
672 1 672 0.998194 0.880446 0 4.38435 
673 1 673 0.998181 0.920475 0 4.82728 
674 1 674 0.998188 0.960508 0 5.40118 
675 1 675 0.99821 1.00054 0 5.90053 
676 1 676 1.04 0 0 0 
677 1 677 1.03986 0.0399901 0 -0.161308 
678 1 678 1.03973 0.0799895 0 0.0871432 
679 1 679 1.0396 0.119994 0 0.543642 
680 1 680 1.03947 0.160005 0 0.956194 
681 1 681 1.03934 0.200022 0 1.36292 
682 1 682 1.03923 0.240043 0 1.81234 
683 1 683 1.03912 0.280066 0 2.08108 
684 1 684 1.03902 0.32009 0 2.16877 
685 1 685 1.03892 0.360114 0 1.79059 
686 1 686 1.03883 0.400139 0 1.39799 
687 1 687 1.03873 0.440164 0 1.21989 
688 1 688 1.03864 0.480188 0 1.61822 
689 1 689 1.03855 0.520208 0 2.35396 
690 1 690 1.03847 0.560226 0 3.00189 
691 1 691 1.0384 0.600243 0 3.50745 
692 1 692 1.03835 0.640262 0 3.75292 
693 1 693 1.03831 0.680284 0 4.00644 
694 1 694 1.03827 0.720307 0 4.06088 
695 1 695 1.03823 0.760331 0 4.02229 
696 1 696 1.03819 0.800354 0 4.08517 
697 1 697 1.03815 0.840378 0 4.1129 
698 1 698 1.03813 0.880404 0 4.33247 
699 1 699 1.03811 0.920434 0 4.79396 
700 1 700 1.03811 0.960468 0 5.45279 
701 1 701 1.03813 1.0005 0 5.92984 
702 1 702 1.08 0 0 0 
703 1 703 1.07986 0.0399913 0 -0.261445 
704 1 704 1.07972 0.0799901 0 -0.0752145 
705 1 705 1.07958 0.119994 0 0.323972 
706 1 706 1.07945 0.160003 0 0.819056 
707 1 707 1.07932 0.200017 0 1.26521 
708 1 708 1.0792 0.240033 0 1.61476 
709 1 709 1.07908 0.280052 0 1.79853 
710 1 710 1.07898 0.320072 0 1.91517 
711 1 711 1.07887 0.360092 0 1.68506 
712 1 712 1.07878 0.400112 0 1.34952 
713 1 713 1.07868 0.440132 0 1.0693 
714 1 714 1.07859 0.48015 0 1.40616 
715 1 715 1.07851 0.520165 0 2.17785 
716 1 716 1.07843 0.560178 0 2.92508 
717 1 717 1.07836 0.600194 0 3.60321 
718 1 718 1.07831 0.640214 0 3.92062 
719 1 719 1.07827 0.680237 0 4.09589 
720 1 720 1.07822 0.720262 0 4.14182 
721 1 721 1.07818 0.760287 0 4.08522 
722 1 722 1.07813 0.80031 0 4.18093 
723 1 723 1.07809 0.840335 0 4.25178 
724 1 724 1.07806 0.880362 0 4.3869 
725 1 725 1.07804 0.920394 0 4.85271 
726 1 726 1.07804 0.960427 0 5.50475 
727 1 727 1.07806 1.00046 0 5.93375 
728 1 728 1.12 0 0 0 
729 1 729 1.11984 0.0399918 0 -0.311623 
730 1 730 1.1197 0.0799893 0 -0.239149 
731 1 731 1.11956 0.119991 0 0.0381081 
732 1 732 1.11943 0.159998 0 0.551909 
733 1 733 1.11929 0.200007 0 1.02575 
734 1 734 1.11917 0.24002 0 1.37362 
735 1 735 1.11905 0.280034 0 1.59548 
736 1 736 1.11894 0.320049 0 1.78125 
737 1 737 1.11883 0.360064 0 1.65669 
738 1 738 1.11873 0.400079 0 1.33211 
739 1 739 1.11863 0.440094 0 0.95674 
740 1 740 1.11854 0.48011 0 1.19417 
741 1 741 1.11845 0.520124 0 1.90657 
742 1 742 1.11838 0.560136 0 2.71496 
743 1 743 1.11831 0.60015 0 3.54047 
744 1 744 1.11824 0.640167 0 3.94163 
745 1 745 1.11819 0.680187 0 4.07957 
746 1 746 1.11814 0.720212 0 4.12177 
747 1 747 1.1181 0.760238 0 4.09349 
748 1 748 1.11806 0.800262 0 4.21826 
749 1 749 1.11801 0.840289 0 4.32226 
750 1 750 1.11798 0.880316 0 4.42826 
751 1 751 1.11796 0.92035 0 4.89436 
752 1 752 1.11796 0.960384 0 5.55733 
753 1 753 1.11799 1.00042 0 5.97594 
754 1 754 1.16 0 0 0 
755 1 755 1.15984 0.0399916 0 -0.257811 
756 1 756 1.15969 0.0799876 0 -0.266232 
757 1 757 1.15955 0.119987 0 -0.121116 
758 1 758 1.15941 0.15999 0 0.316626 
759 1 759 1.15927 0.199996 0 0.771859 
760 1 760 1.15914 0.240003 0 1.11325 
761 1 761 1.15902 0.280011 0 1.32986 
762 1 762 1.15891 0.32002 0 1.59118 
763 1 763 1.1588 0.360029 0 1.64479 
764 1 764 1.15869 0.400039 0 1.43283 
765 1 765 1.15859 0.440049 0 1.05219 
766 1 766 1.1585 0.48006 0 1.19609 
767 1 767 1.15842 0.52007 0 1.79368 
768 1 768 1.15834 0.56008 0 2.56337 
769 1 769 1.15826 0.600094 0 3.35931 
770 1 770 1.1582 0.640112 0 3.74047 
771 1 771 1.15814 0.680134 0 3.83944 
772 1 772 1.15809 0.720161 0 3.89454 
773 1 773 1.15804 0.760187 0 3.96558 
774 1 774 1.15799 0.800215 0 4.14337 
775 1 775 1.15795 0.840243 0 4.35429 
776 1 776 1.15791 0.880272 0 4.53855 
777 1 777 1.15789 0.920307 0 4.96786 
778 1 778 1.15788 0.960342 0 5.62072 
779 1 779 1.15791 1.00038 0 6.05034 
780 1 780 1.2 0 0 0 
781 1 781 1.19983 0.0399913 0 -0.227205 
782 1 782 1.19968 0.0799852 0 -0.316909 
783 1 783 1.19954 0.119982 0 -0.262182 
784 1 784 1.19939 0.159982 0 0.0878535 
785 1 785 1.19925 0.199983 0 0.530624 
786 1 786 1.19912 0.239984 0 0.892886 
787 1 787 1.199 0.279986 0 1.12685 