ITEM: TIMESTEP
0
ITEM: NUMBER OF ATOMS
7127
ITEM: BOX BOUNDS sm sm sm
0 4
0 2
0 0
ITEM: ATOMS id type tag x y z vx 
0 1 0 0 0 0 0 
1 1 1 0 0.04 0 0 
2 1 2 0 0.08 0 0 
3 1 3 0 0.12 0 0 
4 1 4 0 0.16 0 0 
5 1 5 0 0.2 0 0 
6 1 6 0 0.24 0 0 
7 1 7 0 0.28 0 0 
8 1 8 0 0.32 0 0 
9 1 9 0 0.36 0 0 
10 1 10 0 0.4 0 0 
11 1 11 0 0.44 0 0 
12 1 12 0 0.48 0 0 
13 1 13 0 0.52 0 0 
14 1 14 0 0.56 0 0 
15 1 15 0 0.6 0 0 
16 1 16 0 0.64 0 0 
17 1 17 0 0.68 0 0 
18 1 18 0 0.72 0 0 
19 1 19 0 0.76 0 0 
20 1 20 0 0.8 0 0 
21 1 21 0 0.84 0 0 
22 1 22 0 0.88 0 0 
23 1 23 0 0.92 0 0 
24 1 24 0 0.96 0 0 
25 1 25 0 1 0 0 
26 1 26 0.04 0 0 0 
27 1 27 0.0399913 0.0399913 0 -0.196797 
28 1 28 0.0399871 0.0799869 0 -0.316404 
29 1 29 0.0399845 0.119984 0 -0.402236 
30 1 30 0.0399809 0.159981 0 -0.624556 
31 1 31 0.0399789 0.199979 0 -0.828117 
32 1 32 0.0399741 0.239977 0 -0.828565 
33 1 33 0.0399726 0.279975 0 -0.680462 
34 1 34 0.0399701 0.319975 0 -0.462629 
35 1 35 0.0399684 0.359975 0 -0.310294 
36 1 36 0.0399657 0.399978 0 -0.136694 
37 1 37 0.0399654 0.43998 0 0.036913 
38 1 38 0.0399624 0.479983 0 0.144228 
39 1 39 0.0399636 0.519985 0 0.193583 
40 1 40 0.0399601 0.55999 0 0.157892 
41 1 41 0.0399609 0.599994 0 0.114689 
42 1 42 0.0399558 0.64 0 0.0548288 
43 1 43 0.0399576 0.680005 0 0.0209583 
44 1 44 0.0399514 0.720011 0 0.0836717 
45 1 45 0.0399515 0.760015 0 0.0966736 
46 1 46 0.0399462 0.80002 0 0.185002 
47 1 47 0.0399438 0.840023 0 0.138224 
48 1 48 0.0399412 0.880031 0 0.0570537 
49 1 49 0.0399361 0.920041 0 -0.0785533 
50 1 50 0.0399396 0.960055 0 -0.125021 
51 1 51 0.0398813 1.00011 0 0.0237832 
52 1 52 0.08 0 0 0 
53 1 53 0.0799863 0.0399883 0 -0.346439 
54 1 54 0.079977 0.0799793 0 -0.570761 
55 1 55 0.0799712 0.119974 0 -0.73481 
56 1 56 0.0799631 0.159969 0 -1.01572 
57 1 57 0.0799581 0.199966 0 -1.21833 
58 1 58 0.0799515 0.239961 0 -1.20672 
59 1 59 0.079947 0.279959 0 -1.09914 
60 1 60 0.0799421 0.319957 0 -0.907379 
61 1 61 0.0799357 0.359959 0 -0.737058 
62 1 62 0.079932 0.39996 0 -0.432221 
63 1 63 0.0799284 0.439966 0 -0.108045 
64 1 64 0.0799258 0.479969 0 0.190869 
65 1 65 0.0799225 0.519976 0 0.41294 
66 1 66 0.0799187 0.55998 0 0.437238 
67 1 67 0.0799147 0.59999 0 0.310894 
68 1 68 0.079911 0.639997 0 0.117364 
69 1 69 0.079905 0.68001 0 -0.0457331 
70 1 70 0.0799026 0.720017 0 -0.00886627 
71 1 71 0.0798959 0.76003 0 0.0805782 
72 1 72 0.0798944 0.800037 0 0.214869 
73 1 73 0.0798848 0.840051 0 0.228572 
74 1 74 0.0798789 0.880064 0 0.136634 
75 1 75 0.0798719 0.920085 0 -0.0392566 
76 1 76 0.0798493 0.960125 0 -0.238744 
77 1 77 0.0798195 1.00014 0 -0.225197 
78 1 78 0.12 0 0 0 
79 1 79 0.119982 0.0399863 0 -0.456835 
80 1 80 0.119969 0.0799756 0 -0.732974 
81 1 81 0.119958 0.119968 0 -0.863199 
82 1 82 0.119947 0.15996 0 -1.03727 
83 1 83 0.11994 0.199956 0 -1.17753 
84 1 84 0.119931 0.239952 0 -1.21763 
85 1 85 0.119923 0.279949 0 -1.19104 
86 1 86 0.119914 0.319947 0 -1.06285 
87 1 87 0.119904 0.359948 0 -0.952381 
88 1 88 0.119897 0.399949 0 -0.659208 
89 1 89 0.119891 0.439955 0 -0.336648 
90 1 90 0.119886 0.479959 0 0.0626789 
91 1 91 0.119881 0.519966 0 0.413225 
92 1 92 0.119874 0.559975 0 0.523135 
93 1 93 0.119867 0.599985 0 0.393749 
94 1 94 0.11986 0.639998 0 0.108409 
95 1 95 0.119855 0.68001 0 -0.107787 
96 1 96 0.119849 0.720026 0 -0.145731 
97 1 97 0.119844 0.760039 0 -0.00528947 
98 1 98 0.119835 0.800058 0 0.158354 
99 1 99 0.119827 0.840073 0 0.177514 
100 1 100 0.119815 0.880098 0 0.155916 
101 1 101 0.119796 0.920127 0 -0.0046391 
102 1 102 0.11978 0.960155 0 -0.325479 
103 1 103 0.119756 1.00019 0 -0.444215 
104 1 104 0.16 0 0 0 
105 1 105 0.159979 0.0399853 0 -0.5492 
106 1 106 0.159961 0.0799714 0 -0.787492 
107 1 107 0.159947 0.119961 0 -0.769023 
108 1 108 0.159932 0.159953 0 -0.81924 
109 1 109 0.159921 0.199948 0 -0.945972 
110 1 110 0.15991 0.239943 0 -1.0256 
111 1 111 0.159899 0.279941 0 -1.03301 
112 1 112 0.159887 0.31994 0 -1.01029 
113 1 113 0.159874 0.359942 0 -1.04057 
114 1 114 0.159863 0.399944 0 -0.8584 
115 1 115 0.159854 0.439949 0 -0.587844 
116 1 116 0.159846 0.479954 0 -0.130895 
117 1 117 0.159836 0.519963 0 0.263329 
118 1 118 0.159827 0.559971 0 0.398696 
119 1 119 0.159817 0.599983 0 0.315715 
120 1 120 0.159808 0.639996 0 0.0124835 
121 1 121 0.159799 0.680012 0 -0.200253 
122 1 122 0.159791 0.720028 0 -0.197264 
123 1 123 0.159786 0.760048 0 -0.00805881 
124 1 124 0.159777 0.800068 0 0.220598 
125 1 125 0.159764 0.840095 0 0.276985 
126 1 126 0.159748 0.880121 0 0.264068 
127 1 127 0.159729 0.920153 0 0.0522398 
128 1 128 0.159712 0.960187 0 -0.30335 
129 1 129 0.15969 1.00022 0 -0.4087 
130 1 130 0.2 0 0 0 
131 1 131 0.199977 0.0399832 0 -0.595856 
132 1 132 0.199955 0.0799673 0 -0.734687 
133 1 133 0.199937 0.119955 0 -0.580311 
134 1 134 0.199919 0.159946 0 -0.542603 
135 1 135 0.199903 0.19994 0 -0.602397 
136 1 136 0.199888 0.239935 0 -0.672362 
137 1 137 0.199874 0.279935 0 -0.816584 
138 1 138 0.199858 0.319935 0 -1.03809 
139 1 139 0.199843 0.359937 0 -1.20575 
140 1 140 0.199827 0.399939 0 -1.09881 
141 1 141 0.199815 0.439944 0 -0.885382 
142 1 142 0.199803 0.47995 0 -0.40854 
143 1 143 0.199791 0.519958 0 -0.00214396 
144 1 144 0.199779 0.559968 0 0.194598 
145 1 145 0.199764 0.599981 0 0.189991 
146 1 146 0.199753 0.639996 0 -0.0334092 
147 1 147 0.199745 0.680014 0 -0.201622 
148 1 148 0.199738 0.720033 0 -0.157746 
149 1 149 0.199728 0.760056 0 0.0835649 
150 1 150 0.199718 0.800081 0 0.322734 
151 1 151 0.199704 0.840109 0 0.424725 
152 1 152 0.199685 0.880141 0 0.403666 
153 1 153 0.199662 0.920172 0 0.133487 
154 1 154 0.199646 0.960205 0 -0.171699 
155 1 155 0.199631 1.00024 0 -0.204283 
156 1 156 0.24 0 0 0 
157 1 157 0.239973 0.0399807 0 -0.5486 
158 1 158 0.239949 0.0799639 0 -0.601419 
159 1 159 0.239928 0.119951 0 -0.406321 
160 1 160 0.239905 0.159941 0 -0.308938 
161 1 161 0.239885 0.199933 0 -0.334512 
162 1 162 0.239867 0.23993 0 -0.537972 
163 1 163 0.239849 0.279929 0 -0.879696 
164 1 164 0.239828 0.319928 0 -1.1986 
165 1 165 0.23981 0.35993 0 -1.37756 
166 1 166 0.239789 0.399932 0 -1.33807 
167 1 167 0.239774 0.439937 0 -1.20345 
168 1 168 0.239759 0.479944 0 -0.762533 
169 1 169 0.239742 0.519953 0 -0.348182 
170 1 170 0.239727 0.559963 0 0.0081815 
171 1 171 0.239711 0.599978 0 0.158622 
172 1 172 0.239698 0.639993 0 0.0934087 
173 1 173 0.239684 0.680012 0 0.0599729 
174 1 174 0.239675 0.720034 0 0.121271 
175 1 175 0.239667 0.760059 0 0.348543 
176 1 176 0.239655 0.800089 0 0.554404 
177 1 177 0.239637 0.840119 0 0.622029 
178 1 178 0.239619 0.880152 0 0.576883 
179 1 179 0.239598 0.920186 0 0.34912 
180 1 180 0.239581 0.960217 0 0.184642 
181 1 181 0.239564 1.00025 0 0.24887 
182 1 182 0.28 0 0 0 
183 1 183 0.279971 0.0399791 0 -0.374748 
184 1 184 0.279944 0.0799621 0 -0.395097 
185 1 185 0.279917 0.119948 0 -0.267068 
186 1 186 0.279892 0.159936 0 -0.214988 
187 1 187 0.279867 0.199928 0 -0.341711 
188 1 188 0.279844 0.239923 0 -0.736241 
189 1 189 0.279822 0.27992 0 -1.1881 
190 1 190 0.279798 0.319918 0 -1.50188 
191 1 191 0.279777 0.35992 0 -1.67218 
192 1 192 0.279753 0.399921 0 -1.63403 
193 1 193 0.279733 0.439926 0 -1.41951 
194 1 194 0.279712 0.479933 0 -0.94261 
195 1 195 0.279693 0.519943 0 -0.52778 
196 1 196 0.279674 0.559956 0 -0.0836702 
197 1 197 0.279653 0.599973 0 0.162681 
198 1 198 0.279639 0.639991 0 0.285009 
199 1 199 0.279627 0.680014 0 0.415174 
200 1 200 0.279618 0.720038 0 0.532902 
201 1 201 0.279604 0.760065 0 0.715801 
202 1 202 0.279592 0.800095 0 0.847668 
203 1 203 0.279575 0.840128 0 0.87237 
204 1 204 0.279555 0.880161 0 0.760685 
205 1 205 0.279534 0.920193 0 0.570327 
206 1 206 0.279517 0.960226 0 0.56876 
207 1 207 0.279505 1.00026 0 0.737678 
208 1 208 0.32 0 0 0 
209 1 209 0.319966 0.0399784 0 -0.149803 
210 1 210 0.319937 0.0799606 0 -0.209139 
211 1 211 0.319907 0.119944 0 -0.20832 
212 1 212 0.319878 0.159931 0 -0.274049 
213 1 213 0.319849 0.199921 0 -0.558345 
214 1 214 0.319822 0.239914 0 -1.07335 
215 1 215 0.319797 0.27991 0 -1.58608 
216 1 216 0.31977 0.319908 0 -1.88994 
217 1 217 0.319745 0.359908 0 -1.93787 
218 1 218 0.319715 0.399909 0 -1.75882 
219 1 219 0.319691 0.439915 0 -1.43639 
220 1 220 0.319665 0.479923 0 -0.982598 
221 1 221 0.319641 0.519935 0 -0.597285 
222 1 222 0.319618 0.55995 0 -0.0698054 
223 1 223 0.319597 0.599967 0 0.289099 
224 1 224 0.31958 0.639987 0 0.621692 
225 1 225 0.319561 0.680011 0 0.853384 
226 1 226 0.319549 0.720037 0 0.930414 
227 1 227 0.319537 0.760066 0 1.03059 
228 1 228 0.319523 0.800098 0 1.07874 
229 1 229 0.319503 0.840132 0 1.07962 
230 1 230 0.319487 0.880165 0 0.990313 
231 1 231 0.319469 0.920198 0 0.89874 
232 1 232 0.319453 0.960227 0 1.06268 
233 1 233 0.31944 1.00026 0 1.33637 
234 1 234 0.36 0 0 0 
235 1 235 0.359963 0.0399774 0 0.0366832 
236 1 236 0.359929 0.0799583 0 -0.0464041 
237 1 237 0.359896 0.11994 0 -0.197546 
238 1 238 0.359865 0.159926 0 -0.443631 
239 1 239 0.359833 0.199914 0 -0.87981 
240 1 240 0.359802 0.239905 0 -1.44433 
241 1 241 0.359773 0.279899 0 -1.96545 
242 1 242 0.359741 0.319896 0 -2.19086 
243 1 243 0.359712 0.359895 0 -2.02201 
244 1 244 0.359679 0.399897 0 -1.64634 
245 1 245 0.359649 0.439903 0 -1.24075 
246 1 246 0.359617 0.479912 0 -0.859635 
247 1 247 0.359591 0.519926 0 -0.541702 
248 1 248 0.359564 0.559943 0 -0.000890985 
249 1 249 0.359536 0.599964 0 0.418874 
250 1 250 0.359517 0.639986 0 0.901225 
251 1 251 0.359501 0.680012 0 1.22329 
252 1 252 0.359488 0.72004 0 1.29942 
253 1 253 0.35947 0.76007 0 1.29402 
254 1 254 0.359455 0.800101 0 1.25458 
255 1 255 0.359437 0.840134 0 1.22291 
256 1 256 0.359421 0.880166 0 1.16308 
257 1 257 0.359403 0.920198 0 1.19673 
258 1 258 0.359391 0.960227 0 1.49974 
259 1 259 0.359385 1.00026 0 1.85962 
260 1 260 0.4 0 0 0 
261 1 261 0.399958 0.0399761 0 0.143991 
262 1 262 0.399921 0.0799552 0 0.0429666 
263 1 263 0.399886 0.119937 0 -0.263217 
264 1 264 0.399852 0.159921 0 -0.638293 
265 1 265 0.399816 0.199907 0 -1.14487 
266 1 266 0.399782 0.239897 0 -1.7507 
267 1 267 0.399749 0.279889 0 -2.22757 
268 1 268 0.399714 0.319886 0 -2.25874 
269 1 269 0.399681 0.359885 0 -1.85736 
270 1 270 0.399644 0.399889 0 -1.35324 
271 1 271 0.399609 0.439896 0 -0.889867 
272 1 272 0.399571 0.479906 0 -0.530753 
273 1 273 0.399538 0.519921 0 -0.279829 
274 1 274 0.399506 0.559939 0 0.149037 
275 1 275 0.39948 0.59996 0 0.549732 
276 1 276 0.399456 0.639983 0 1.12223 
277 1 277 0.39943 0.680008 0 1.46782 
278 1 278 0.399414 0.720036 0 1.58227 
279 1 279 0.399398 0.760067 0 1.54214 
280 1 280 0.399382 0.800099 0 1.45635 
281 1 281 0.399362 0.840132 0 1.42985 
282 1 282 0.39935 0.880162 0 1.43888 
283 1 283 0.399337 0.920194 0 1.59401 
284 1 284 0.399328 0.960222 0 1.99928 
285 1 285 0.399323 1.00025 0 2.42926 
286 1 286 0.44 0 0 0 
287 1 287 0.439955 0.0399744 0 0.150114 
288 1 288 0.439914 0.0799521 0 0.0324906 
289 1 289 0.439877 0.119933 0 -0.363992 
290 1 290 0.439839 0.159915 0 -0.805101 
291 1 291 0.439801 0.1999 0 -1.33153 
292 1 292 0.439762 0.23989 0 -1.90641 
293 1 293 0.439725 0.279882 0 -2.27184 
294 1 294 0.439686 0.319879 0 -2.14028 
295 1 295 0.439649 0.359879 0 -1.59789 
296 1 296 0.439608 0.399883 0 -0.981468 
297 1 297 0.439567 0.43989 0 -0.440367 
298 1 298 0.439524 0.479902 0 -0.125906 
299 1 299 0.439489 0.519918 0 0.0347376 
300 1 300 0.439451 0.559936 0 0.36701 
301 1 301 0.439417 0.599959 0 0.7716 
302 1 302 0.439391 0.639983 0 1.40101 
303 1 303 0.439369 0.68001 0 1.72993 
304 1 304 0.439352 0.720038 0 1.83054 
305 1 305 0.439329 0.760068 0 1.72668 
306 1 306 0.439312 0.800097 0 1.63205 
307 1 307 0.439296 0.840128 0 1.62078 
308 1 308 0.439284 0.880157 0 1.69822 
309 1 309 0.43927 0.920188 0 1.97078 
310 1 310 0.439268 0.960215 0 2.43841 
311 1 311 0.43927 1.00024 0 2.91145 
312 1 312 0.48 0 0 0 
313 1 313 0.47995 0.0399733 0 0.123775 
314 1 314 0.479907 0.0799493 0 -0.0409615 
315 1 315 0.479867 0.119928 0 -0.500923 
316 1 316 0.479826 0.15991 0 -0.958033 
317 1 317 0.479785 0.199895 0 -1.46788 
318 1 318 0.479742 0.239884 0 -1.971 
319 1 319 0.4797 0.279876 0 -2.20236 
320 1 320 0.479657 0.319875 0 -1.97063 
321 1 321 0.479615 0.359876 0 -1.36291 
322 1 322 0.479569 0.399883 0 -0.623504 
323 1 323 0.479524 0.439891 0 0.00311487 
324 1 324 0.479478 0.479904 0 0.280271 
325 1 325 0.479434 0.51992 0 0.393935 
326 1 326 0.479392 0.559939 0 0.658621 
327 1 327 0.479362 0.59996 0 1.03641 
328 1 328 0.47933 0.639983 0 1.63242 
329 1 329 0.479298 0.680007 0 1.95838 
330 1 330 0.479276 0.720033 0 2.12766 
331 1 331 0.479256 0.760062 0 1.99396 
332 1 332 0.47924 0.80009 0 1.92944 
333 1 333 0.47922 0.840121 0 1.96882 
334 1 334 0.479213 0.880148 0 2.09325 
335 1 335 0.479205 0.920178 0 2.4267 
336 1 336 0.479205 0.960205 0 2.89821 
337 1 337 0.479207 1.00023 0 3.38032 
338 1 338 0.52 0 0 0 
339 1 339 0.519949 0.0399726 0 0.0259848 
340 1 340 0.519901 0.0799476 0 -0.178312 
341 1 341 0.519858 0.119926 0 -0.655338 
342 1 342 0.519814 0.159907 0 -1.11295 
343 1 343 0.519768 0.199891 0 -1.5843 
344 1 344 0.519719 0.23988 0 -2.011 
345 1 345 0.519672 0.279874 0 -2.12868 
346 1 346 0.519624 0.319874 0 -1.80927 
347 1 347 0.519577 0.359876 0 -1.15245 
348 1 348 0.519529 0.399884 0 -0.346526 
349 1 349 0.519479 0.439894 0 0.289517 
350 1 350 0.519428 0.479908 0 0.581561 
351 1 351 0.519383 0.519924 0 0.765153 
352 1 352 0.519337 0.559943 0 1.0197 
353 1 353 0.519298 0.599965 0 1.38268 
354 1 354 0.519264 0.639988 0 1.91469 
355 1 355 0.519241 0.680012 0 2.20205 
356 1 356 0.519218 0.720036 0 2.40494 
357 1 357 0.519191 0.760062 0 2.26392 
358 1 358 0.519175 0.800087 0 2.26975 
359 1 359 0.519158 0.840114 0 2.35855 
360 1 360 0.519149 0.880139 0 2.52046 
361 1 361 0.519139 0.920168 0 2.91115 
362 1 362 0.519144 0.960195 0 3.35878 
363 1 363 0.519151 1.00022 0 3.81443 
364 1 364 0.56 0 0 0 
365 1 365 0.559946 0.0399725 0 -0.0814417 
366 1 366 0.559896 0.0799463 0 -0.327389 
367 1 367 0.559849 0.119923 0 -0.822816 
368 1 368 0.559799 0.159904 0 -1.30156 
369 1 369 0.559749 0.19989 0 -1.70364 
370 1 370 0.559695 0.23988 0 -2.01435 
371 1 371 0.559641 0.279874 0 -2.04075 
372 1 372 0.559587 0.319876 0 -1.6822 
373 1 373 0.559536 0.35988 0 -1.06467 
374 1 374 0.559483 0.399891 0 -0.289861 
375 1 375 0.559431 0.439902 0 0.380432 
376 1 376 0.559378 0.479916 0 0.79182 
377 1 377 0.559326 0.519933 0 1.06779 
378 1 378 0.559278 0.559952 0 1.30149 
379 1 379 0.559243 0.599971 0 1.64342 
380 1 380 0.559206 0.63999 0 2.10836 
381 1 381 0.559173 0.680011 0 2.36497 
382 1 382 0.559145 0.720032 0 2.59839 
383 1 383 0.559124 0.760055 0 2.5199 
384 1 384 0.559107 0.800079 0 2.66696 
385 1 385 0.559087 0.840104 0 2.84119 
386 1 386 0.559081 0.880129 0 3.03579 
387 1 387 0.559074 0.920156 0 3.41151 
388 1 388 0.559077 0.960184 0 3.73953 
389 1 389 0.55908 1.00022 0 4.10842 
390 1 390 0.6 0 0 0 
391 1 391 0.599945 0.039972 0 -0.154738 
392 1 392 0.599891 0.0799451 0 -0.46957 
393 1 393 0.599838 0.119922 0 -0.963499 
394 1 394 0.599784 0.159904 0 -1.42336 
395 1 395 0.599728 0.19989 0 -1.7489 
396 1 396 0.599667 0.239881 0 -1.94421 
397 1 397 0.599607 0.279878 0 -1.89443 
398 1 398 0.599547 0.319881 0 -1.55578 
399 1 399 0.599492 0.359887 0 -1.04283 
400 1 400 0.599437 0.399898 0 -0.329007 
401 1 401 0.599382 0.43991 0 0.352125 
402 1 402 0.599325 0.479926 0 0.813334 
403 1 403 0.599275 0.519942 0 1.13598 
404 1 404 0.599226 0.55996 0 1.42092 
405 1 405 0.599182 0.599978 0 1.76969 
406 1 406 0.599145 0.639999 0 2.14536 
407 1 407 0.599122 0.680018 0 2.39289 
408 1 408 0.599094 0.720037 0 2.69432 
409 1 409 0.599065 0.760057 0 2.76604 
410 1 410 0.599047 0.800076 0 3.09135 
411 1 411 0.599029 0.840099 0 3.35809 
412 1 412 0.599019 0.880121 0 3.57178 
413 1 413 0.599007 0.920149 0 3.89712 
414 1 414 0.599011 0.960177 0 4.11163 
415 1 415 0.599016 1.00021 0 4.39344 
416 1 416 0.64 0 0 0 
417 1 417 0.639943 0.0399717 0 -0.216595 
418 1 418 0.639886 0.0799448 0 -0.583188 
419 1 419 0.639827 0.119922 0 -1.03694 
420 1 420 0.639765 0.159905 0 -1.45578 
421 1 421 0.639703 0.199892 0 -1.70445 
422 1 422 0.639636 0.239886 0 -1.77371 
423 1 423 0.639569 0.279884 0 -1.64797 
424 1 424 0.639505 0.319889 0 -1.34974 
425 1 425 0.639445 0.359897 0 -0.974539 
426 1 426 0.639387 0.39991 0 -0.403844 
427 1 427 0.639332 0.439923 0 0.20114 
428 1 428 0.639276 0.479939 0 0.694202 
429 1 429 0.63922 0.519954 0 1.10485 
430 1 430 0.639169 0.559971 0 1.47215 
431 1 431 0.639132 0.599987 0 1.77816 
432 1 432 0.639093 0.640002 0 2.02965 
433 1 433 0.639056 0.680018 0 2.26294 
434 1 434 0.639025 0.720034 0 2.64649 
435 1 435 0.639002 0.760053 0 2.94365 
436 1 436 0.638982 0.800072 0 3.45416 
437 1 437 0.63896 0.840094 0 3.82551 
438 1 438 0.63895 0.880117 0 4.08008 
439 1 439 0.63894 0.920144 0 4.3216 
440 1 440 0.638938 0.960174 0 4.40734 
441 1 441 0.638935 1.00021 0 4.59512 
442 1 442 0.68 0 0 0 
443 1 443 0.679942 0.0399707 0 -0.226121 
444 1 444 0.679878 0.0799444 0 -0.606612 
445 1 445 0.679812 0.119923 0 -1.00177 
446 1 446 0.679745 0.159907 0 -1.35789 
447 1 447 0.679676 0.199897 0 -1.49967 
448 1 448 0.679602 0.239893 0 -1.43534 
449 1 449 0.67953 0.279893 0 -1.26063 
450 1 450 0.679461 0.319899 0 -1.03862 
451 1 451 0.679397 0.359908 0 -0.834508 
452 1 452 0.679339 0.399921 0 -0.462964 
453 1 453 0.679282 0.439934 0 0.0373165 
454 1 454 0.679225 0.479949 0 0.569286 
455 1 455 0.679173 0.519963 0 1.03445 
456 1 456 0.679121 0.559979 0 1.40995 
457 1 457 0.679074 0.599995 0 1.64146 
458 1 458 0.679036 0.640011 0 1.84036 
459 1 459 0.679009 0.680028 0 2.09626 
460 1 460 0.678979 0.720043 0 2.54636 
461 1 461 0.678947 0.76006 0 3.08678 
462 1 462 0.678924 0.800078 0 3.76975 
463 1 463 0.678905 0.840097 0 4.25814 
464 1 464 0.678887 0.88012 0 4.54319 
465 1 465 0.678869 0.920146 0 4.64615 
466 1 466 0.678865 0.960177 0 4.59094 
467 1 467 0.678861 1.00021 0 4.68329 
468 1 468 0.72 0 0 0 
469 1 469 0.719936 0.0399702 0 -0.245294 
470 1 470 0.719869 0.0799442 0 -0.601513 
471 1 471 0.719796 0.119924 0 -0.875421 
472 1 472 0.719721 0.15991 0 -1.12287 
473 1 473 0.719646 0.199902 0 -1.15602 
474 1 474 0.719567 0.239901 0 -0.965702 
475 1 475 0.719489 0.279902 0 -0.740478 
476 1 476 0.719416 0.319909 0 -0.595514 
477 1 477 0.71935 0.359918 0 -0.519973 
478 1 478 0.719288 0.399931 0 -0.317512 
479 1 479 0.719233 0.439945 0 0.0191874 
480 1 480 0.719176 0.47996 0 0.515188 
481 1 481 0.719119 0.519974 0 1.02147 
482 1 482 0.719068 0.559989 0 1.44128 
483 1 483 0.719027 0.600003 0 1.62344 
484 1 484 0.718986 0.640016 0 1.74042 
485 1 485 0.718944 0.680031 0 1.94557 
486 1 486 0.718909 0.720047 0 2.4216 
487 1 487 0.718884 0.760064 0 3.15903 
488 1 488 0.718858 0.800083 0 3.92923 
489 1 489 0.718834 0.840104 0 4.51855 
490 1 490 0.718816 0.880128 0 4.84275 
491 1 491 0.718801 0.920154 0 4.84416 
492 1 492 0.718788 0.960186 0 4.75264 
493 1 493 0.718773 1.00022 0 4.80517 
494 1 494 0.76 0 0 0 
495 1 495 0.759932 0.039969 0 -0.27653 
496 1 496 0.759857 0.0799443 0 -0.578594 
497 1 497 0.759777 0.119926 0 -0.703946 
498 1 498 0.759697 0.159915 0 -0.805938 
499 1 499 0.759615 0.199908 0 -0.728916 
500 1 500 0.759531 0.239908 0 -0.42671 
501 1 501 0.75945 0.279911 0 -0.122358 
502 1 502 0.759372 0.319917 0 -0.0330449 
503 1 503 0.759303 0.359925 0 -0.0956648 
504 1 504 0.75924 0.399936 0 -0.0548509 
505 1 505 0.759183 0.439949 0 0.168593 
506 1 506 0.759125 0.479964 0 0.64534 
507 1 507 0.759072 0.519978 0 1.15044 
508 1 508 0.759019 0.559993 0 1.585 
509 1 509 0.758968 0.600009 0 1.71743 
510 1 510 0.758927 0.640028 0 1.74762 
511 1 511 0.758896 0.680046 0 1.89311 
512 1 512 0.758863 0.720063 0 2.37129 
513 1 513 0.758827 0.760081 0 3.22458 
514 1 514 0.758799 0.800099 0 3.99172 
515 1 515 0.758778 0.840119 0 4.59832 
516 1 516 0.758751 0.880143 0 4.89589 
517 1 517 0.758727 0.92017 0 4.8238 
518 1 518 0.758711 0.960202 0 4.76943 
519 1 519 0.758695 1.00024 0 4.8137 
520 1 520 0.8 0 0 0 
521 1 521 0.799923 0.0399686 0 -0.329235 
522 1 522 0.799843 0.0799449 0 -0.531733 
523 1 523 0.799757 0.119928 0 -0.49607 
524 1 524 0.79967 0.159917 0 -0.455277 
525 1 525 0.799583 0.199913 0 -0.265628 
526 1 526 0.799495 0.239914 0 0.12374 
527 1 527 0.799409 0.279917 0 0.498299 
528 1 528 0.799329 0.319922 0 0.599879 
529 1 529 0.799257 0.35993 0 0.495837 
530 1 530 0.799189 0.399941 0 0.40554 
531 1 531 0.799132 0.439953 0 0.495795 
532 1 532 0.799073 0.479968 0 0.947317 
533 1 533 0.799016 0.519983 0 1.44249 
534 1 534 0.798963 0.559999 0 1.85575 
535 1 535 0.798919 0.600015 0 1.93589 
536 1 536 0.798873 0.640031 0 1.88946 
537 1 537 0.798825 0.680049 0 1.97168 
538 1 538 0.798787 0.720069 0 2.3973 
539 1 539 0.798759 0.76009 0 3.23001 
540 1 540 0.79873 0.800112 0 3.92001 
541 1 541 0.798703 0.840135 0 4.52879 
542 1 542 0.798677 0.88016 0 4.82674 
543 1 543 0.798656 0.920188 0 4.74677 
544 1 544 0.79863 0.960221 0 4.75346 
545 1 545 0.798604 1.00026 0 4.79338 
546 1 546 0.84 0 0 0 
547 1 547 0.839916 0.0399687 0 -0.402939 
548 1 548 0.839827 0.079946 0 -0.496455 
549 1 549 0.839736 0.11993 0 -0.295169 
550 1 550 0.839644 0.15992 0 -0.101555 
551 1 551 0.839551 0.199916 0 0.209618 
552 1 552 0.839458 0.239917 0 0.670886 
553 1 553 0.839371 0.27992 0 1.09581 
554 1 554 0.839285 0.319925 0 1.22701 
555 1 555 0.83921 0.359931 0 1.14265 
556 1 556 0.83914 0.39994 0 0.995972 
557 1 557 0.839079 0.439952 0 0.955327 
558 1 558 0.839018 0.479966 0 1.29522 
559 1 559 0.838964 0.519981 0 1.71744 
560 1 560 0.83891 0.559998 0 2.10618 
561 1 561 0.838853 0.600017 0 2.17252 
562 1 562 0.838807 0.640039 0 2.08319 
563 1 563 0.838772 0.680062 0 2.13972 
564 1 564 0.838736 0.720084 0 2.48982 
565 1 565 0.838697 0.760108 0 3.19657 
566 1 566 0.838666 0.800131 0 3.77027 
567 1 567 0.838642 0.840155 0 4.30046 
568 1 568 0.838608 0.880182 0 4.54827 
569 1 569 0.838578 0.920211 0 4.54181 
570 1 570 0.838552 0.960245 0 4.66855 
571 1 571 0.838527 1.00028 0 4.72163 
572 1 572 0.88 0 0 0 
573 1 573 0.879905 0.0399697 0 -0.455254 
574 1 574 0.879812 0.0799472 0 -0.416975 
575 1 575 0.879714 0.119931 0 -0.0568282 
576 1 576 0.879615 0.159922 0 0.251466 
577 1 577 0.879517 0.199918 0 0.625871 
578 1 578 0.879421 0.239919 0 1.13456 
579 1 579 0.87933 0.279921 0 1.62811 
580 1 580 0.879243 0.319926 0 1.80156 
581 1 581 0.879164 0.359931 0 1.72349 
582 1 582 0.879089 0.39994 0 1.53036 
583 1 583 0.879024 0.439952 0 1.40407 
584 1 584 0.878962 0.479966 0 1.646 
585 1 585 0.878901 0.519982 0 1.95587 
586 1 586 0.878847 0.56 0 2.26612 
587 1 587 0.878798 0.600018 0 2.34149 
588 1 588 0.878747 0.640037 0 2.26166 
589 1 589 0.878692 0.68006 0 2.32227 
590 1 590 0.87865 0.720086 0 2.61917 
591 1 591 0.878621 0.760113 0 3.20101 
592 1 592 0.878589 0.800141 0 3.66577 
593 1 593 0.878558 0.840171 0 4.07627 
594 1 594 0.878528 0.880201 0 4.26815 
595 1 595 0.878503 0.920233 0 4.33654 
596 1 596 0.878469 0.960268 0 4.5398 
597 1 597 0.878438 1.00031 0 4.60312 
598 1 598 0.92 0 0 0 
599 1 599 0.919899 0.039971 0 -0.420976 
600 1 600 0.919795 0.0799493 0 -0.277309 
601 1 601 0.919691 0.119933 0 0.179132 
602 1 602 0.919588 0.159924 0 0.565618 
603 1 603 0.919484 0.199919 0 0.982222 
604 1 604 0.919384 0.239919 0 1.5121 
605 1 605 0.919291 0.279921 0 2.03357 
606 1 606 0.9192 0.319925 0 2.26649 
607 1 607 0.919116 0.35993 0 2.23922 
608 1 608 0.919038 0.399938 0 1.99185 
609 1 609 0.918968 0.439949 0 1.72194 
610 1 610 0.918902 0.479964 0 1.80839 
611 1 611 0.918845 0.51998 0 2.00036 
612 1 612 0.918788 0.559997 0 2.21288 
613 1 613 0.918725 0.600017 0 2.29567 
614 1 614 0.918673 0.640042 0 2.28941 
615 1 615 0.918633 0.680069 0 2.43944 
616 1 616 0.918592 0.720097 0 2.73072 
617 1 617 0.91855 0.760126 0 3.15896 
618 1 618 0.918517 0.800156 0 3.47127 
619 1 619 0.918488 0.840187 0 3.74905 
620 1 620 0.918452 0.88022 0 3.97738 
621 1 621 0.918419 0.920255 0 4.19221 
622 1 622 0.918388 0.960293 0 4.43573 
623 1 623 0.918364 1.00033 0 4.49182 
624 1 624 0.96 0 0 0 
625 1 625 0.95989 0.0399731 0 -0.328374 
626 1 626 0.959781 0.0799519 0 -0.0904014 
627 1 627 0.959671 0.119935 0 0.460436 
628 1 628 0.959559 0.159925 0 0.923866 
629 1 629 0.95945 0.19992 0 1.35868 
630 1 630 0.959347 0.239919 0 1.86652 
631 1 631 0.95925 0.27992 0 2.33496 
632 1 632 0.959157 0.319923 0 2.55402 
633 1 633 0.95907 0.359929 0 2.53344 
634 1 634 0.958986 0.399938 0 2.26701 
635 1 635 0.958912 0.43995 0 1.91924 
636 1 636 0.958843 0.479964 0 1.80869 
637 1 637 0.958777 0.519981 0 1.80742 
638 1 638 0.958718 0.559999 0 1.92793 
639 1 639 0.958666 0.600019 0 2.12054 
640 1 640 0.958607 0.640039 0 2.25643 
641 1 641 0.958545 0.680064 0 2.48383 
642 1 642 0.958497 0.720095 0 2.78647 
643 1 643 0.958465 0.760126 0 3.0888 
644 1 644 0.95843 0.800161 0 3.26835 
645 1 645 0.958394 0.840197 0 3.44093 
646 1 646 0.958364 0.880234 0 3.70976 
647 1 647 0.958335 0.920272 0 3.99449 
648 1 648 0.958301 0.960311 0 4.21122 
649 1 649 0.958275 1.00035 0 4.2612 
650 1 650 1 0 0 0 
651 1 651 0.999885 0.0399745 0 -0.160137 
652 1 652 0.999766 0.0799543 0 0.173254 
653 1 653 0.999648 0.119938 0 0.75241 
654 1 654 0.999531 0.159928 0 1.23978 
655 1 655 0.999417 0.199921 0 1.68787 
656 1 656 0.99931 0.239918 0 2.17645 
657 1 657 0.999211 0.279918 0 2.59558 
658 1 658 0.999114 0.319921 0 2.8064 
659 1 659 0.999022 0.359926 0 2.74383 
660 1 660 0.998935 0.399934 0 2.39561 
661 1 661 0.998854 0.439946 0 1.94292 
662 1 662 0.998781 0.479961 0 1.64607 
663 1 663 0.998718 0.519978 0 1.49947 
664 1 664 0.998656 0.559996 0 1.48473 
665 1 665 0.998588 0.600019 0 1.69157 
666 1 666 0.998528 0.640045 0 1.99859 
667 1 667 0.998483 0.680073 0 2.39691 
668 1 668 0.998435 0.720104 0 2.74744 
669 1 669 0.998387 0.760136 0 2.92865 
670 1 670 0.998349 0.800171 0 3.00847 
671 1 671 0.998316 0.840208 0 3.10787 
672 1 672 0.998279 0.880246 0 3.41272 
673 1 673 0.998243 0.920287 0 3.7772 
674 1 674 0.998216 0.960327 0 4.05955 
675 1 675 0.998199 1.00037 0 4.17561 
676 1 676 1.04 0 0 0 
677 1 677 1.03988 0.0399759 0 0.0677921 
678 1 678 1.03975 0.0799563 0 0.496417 
679 1 679 1.03963 0.119941 0 1.07812 
680 1 680 1.0395 0.15993 0 1.59607 
681 1 681 1.03938 0.199922 0 2.07977 
682 1 682 1.03927 0.239918 0 2.53383 
683 1 683 1.03917 0.279917 0 2.83489 
684 1 684 1.03907 0.319919 0 2.97168 
685 1 685 1.03897 0.359925 0 2.8609 
686 1 686 1.03888 0.399934 0 2.46283 
687 1 687 1.0388 0.439946 0 1.92123 
688 1 688 1.03872 0.47996 0 1.4245 
689 1 689 1.03865 0.519978 0 1.13339 
690 1 690 1.03858 0.559998 0 1.02308 
691 1 691 1.03853 0.60002 0 1.29117 
692 1 692 1.03846 0.640042 0 1.76575 
693 1 693 1.03839 0.680068 0 2.27953 
694 1 694 1.03834 0.7201 0 2.66112 
695 1 695 1.0383 0.760134 0 2.73299 
696 1 696 1.03825 0.800172 0 2.6924 
697 1 697 1.03821 0.840211 0 2.72513 
698 1 698 1.03818 0.880252 0 3.07576 
699 1 699 1.03815 0.920294 0 3.50052 
700 1 700 1.03812 0.960336 0 3.83571 
701 1 701 1.0381 1.00038 0 4.01109 
702 1 702 1.08 0 0 0 
703 1 703 1.07987 0.0399769 0 0.287706 
704 1 704 1.07974 0.0799586 0 0.827321 
705 1 705 1.07961 0.119944 0 1.45588 
706 1 706 1.07948 0.159932 0 2.00496 
707 1 707 1.07935 0.199923 0 2.48234 
708 1 708 1.07924 0.239917 0 2.87945 
709 1 709 1.07913 0.279915 0 3.06629 
710 1 710 1.07903 0.319916 0 3.14466 
711 1 711 1.07893 0.359921 0 3.01039 
712 1 712 1.07883 0.399928 0 2.60282 
713 1 713 1.07874 0.43994 0 2.03373 
714 1 714 1.07866 0.479955 0 1.37277 
715 1 715 1.07859 0.519973 0 0.921277 
716 1 716 1.07852 0.559994 0 0.683616 
717 1 717 1.07845 0.600018 0 0.966731 
718 1 718 1.07838 0.640047 0 1.57767 
719 1 719 1.07833 0.680077 0 2.17972 
720 1 720 1.07827 0.720108 0 2.57651 
721 1 721 1.07822 0.760141 0 2.6049 
722 1 722 1.07817 0.800178 0 2.50136 
723 1 723 1.07813 0.840217 0 2.45021 
724 1 724 1.07809 0.880258 0 2.8058 
725 1 725 1.07805 0.920301 0 3.2772 
726 1 726 1.07803 0.960344 0 3.61728 
727 1 727 1.07802 1.00039 0 3.79578 
728 1 728 1.12 0 0 0 
729 1 729 1.11986 0.0399778 0 0.560697 
730 1 730 1.11972 0.0799593 0 1.15539 
731 1 731 1.11959 0.119945 0 1.75513 
732 1 732 1.11945 0.159933 0 2.34439 
733 1 733 1.11932 0.199924 0 2.8648 
734 1 734 1.11921 0.239918 0 3.26079 
735 1 735 1.11909 0.279915 0 3.39108 
736 1 736 1.11898 0.319915 0 3.41921 
737 1 737 1.11888 0.35992 0 3.23989 
738 1 738 1.11878 0.399928 0 2.80016 
739 1 739 1.11868 0.439939 0 2.24282 
740 1 740 1.1186 0.479953 0 1.52986 
741 1 741 1.11852 0.51997 0 0.968679 
742 1 742 1.11844 0.559993 0 0.596942 
743 1 743 1.11839 0.600018 0 0.866875 
744 1 744 1.11831 0.640043 0 1.57953 
745 1 745 1.11824 0.68007 0 2.2389 
746 1 746 1.11817 0.720102 0 2.58791 
747 1 747 1.11812 0.760137 0 2.51966 
748 1 748 1.11807 0.800176 0 2.34916 
749 1 749 1.11802 0.840216 0 2.24073 
750 1 750 1.11798 0.880259 0 2.55761 
751 1 751 1.11795 0.920302 0 3.02071 
752 1 752 1.11793 0.960347 0 3.38589 
753 1 753 1.11791 1.00039 0 3.58326 
754 1 754 1.16 0 0 0 
755 1 755 1.15986 0.0399775 0 0.823915 
756 1 756 1.15971 0.07996 0 1.50247 
757 1 757 1.15957 0.119947 0 2.08919 
758 1 758 1.15943 0.159934 0 2.71245 
759 1 759 1.1593 0.199925 0 3.22997 
760 1 760 1.15917 0.239918 0 3.56212 
761 1 761 1.15906 0.279915 0 3.62506 
762 1 762 1.15894 0.319915 0 3.62182 
763 1 763 1.15883 0.359919 0 3.47995 
764 1 764 1.15873 0.399925 0 3.11593 
765 1 765 1.15862 0.439935 0 2.60145 
766 1 766 1.15853 0.479949 0 1.82689 
767 1 767 1.15846 0.519967 0 1.19985 
768 1 768 1.15838 0.559988 0 0.790362 
769 1 769 1.1583 0.600014 0 0.970246 
770 1 770 1.15823 0.640046 0 1.59409 
771 1 771 1.15817 0.680077 0 2.27564 
772 1 772 1.15811 0.720108 0 2.61868 
773 1 773 1.15804 0.760141 0 2.47983 
774 1 774 1.15798 0.800179 0 2.29047 
775 1 775 1.15793 0.840218 0 2.14667 
776 1 776 1.15789 0.880261 0 2.35279 
777 1 777 1.15785 0.920306 0 2.75407 
778 1 778 1.15783 0.960353 0 3.1329 
779 1 779 1.15782 1.0004 0 3.32935 
780 1 780 1.2 0 0 0 
781 1 781 1.19985 0.0399786 0 0.996425 
782 1 782 1.1997 0.0799607 0 1.74226 
783 1 783 1.19955 0.119947 0 2.29699 
784 1 784 1.1994 0.159935 0 2.94514 
785 1 785 1.19927 0.199927 0 3.4922 
786 1 786 1.19914 0.23992 0 3.80789 