ITEM: TIMESTEP
0
ITEM: NUMBER OF ATOMS
7127
ITEM: BOX BOUNDS sm sm sm
0 4
0 2
0 0
ITEM: ATOMS id type tag x y z vx 
0 1 0 0 0 0 0 
1 1 1 0 0.04 0 0 
2 1 2 0 0.08 0 0 
3 1 3 0 0.12 0 0 
4 1 4 0 0.16 0 0 
5 1 5 0 0.2 0 0 
6 1 6 0 0.24 0 0 
7 1 7 0 0.28 0 0 
8 1 8 0 0.32 0 0 
9 1 9 0 0.36 0 0 
10 1 10 0 0.4 0 0 
11 1 11 0 0.44 0 0 
12 1 12 0 0.48 0 0 
13 1 13 0 0.52 0 0 
14 1 14 0 0.56 0 0 
15 1 15 0 0.6 0 0 
16 1 16 0 0.64 0 0 
17 1 17 0 0.68 0 0 
18 1 18 0 0.72 0 0 
19 1 19 0 0.76 0 0 
20 1 20 0 0.8 0 0 
21 1 21 0 0.84 0 0 
22 1 22 0 0.88 0 0 
23 1 23 0 0.92 0 0 
24 1 24 0 0.96 0 0 
25 1 25 0 1 0 0 
26 1 26 0.04 0 0 0 
27 1 27 0.0400099 0.0400054 0 1.23429 
28 1 28 0.0400093 0.0800127 0 1.1853 
29 1 29 0.0399985 0.120016 0 0.888786 
30 1 30 0.0399909 0.160024 0 1.09216 
31 1 31 0.0399884 0.200027 0 1.36244 
32 1 32 0.0399809 0.240026 0 1.33105 
33 1 33 0.0399773 0.280027 0 1.14552 
34 1 34 0.0399723 0.320026 0 0.636561 
35 1 35 0.0399757 0.360019 0 0.229098 
36 1 36 0.0399722 0.400012 0 0.0677965 
37 1 37 0.0399791 0.439998 0 0.135466 
38 1 38 0.0399732 0.479991 0 0.415117 
39 1 39 0.0399764 0.519984 0 0.608961 
40 1 40 0.0399738 0.559986 0 0.910292 
41 1 41 0.0399793 0.599989 0 1.05192 
42 1 42 0.0399768 0.639995 0 0.962542 
43 1 43 0.0399883 0.68 0 1.06176 
44 1 44 0.0399813 0.720009 0 1.29776 
45 1 45 0.0399908 0.760017 0 1.48161 
46 1 46 0.039985 0.800029 0 1.97696 
47 1 47 0.0399895 0.840036 0 2.04899 
48 1 48 0.0399867 0.880046 0 2.22343 
49 1 49 0.0399725 0.920052 0 1.93792 
50 1 50 0.0399751 0.960052 0 2.1868 
51 1 51 0.0399079 1.0001 0 3.12658 
52 1 52 0.08 0 0 0 
53 1 53 0.0800157 0.0400098 0 2.07088 
54 1 54 0.0800071 0.0800148 0 2.0421 
55 1 55 0.0799916 0.120019 0 1.54927 
56 1 56 0.0799837 0.16003 0 1.93637 
57 1 57 0.079982 0.200034 0 2.62984 
58 1 58 0.0799704 0.240033 0 2.75468 
59 1 59 0.0799627 0.280035 0 2.30057 
60 1 60 0.0799556 0.320033 0 1.2624 
61 1 61 0.0799636 0.360029 0 0.367969 
62 1 62 0.0799619 0.40002 0 -0.00808752 
63 1 63 0.0799696 0.440008 0 0.173715 
64 1 64 0.0799596 0.479998 0 0.886554 
65 1 65 0.0799564 0.519993 0 1.40291 
66 1 66 0.0799514 0.559993 0 1.94545 
67 1 67 0.0799521 0.600001 0 2.03361 
68 1 68 0.0799556 0.640006 0 1.81313 
69 1 69 0.0799608 0.68002 0 1.72262 
70 1 70 0.0799625 0.720027 0 1.88724 
71 1 71 0.0799623 0.760047 0 2.39608 
72 1 72 0.0799695 0.800053 0 3.5583 
73 1 73 0.0799626 0.840072 0 4.10081 
74 1 74 0.0799671 0.880075 0 3.96511 
75 1 75 0.0799529 0.920087 0 3.77439 
76 1 76 0.0799189 0.960111 0 4.63209 
77 1 77 0.0798747 1.00012 0 5.84213 
78 1 78 0.12 0 0 0 
79 1 79 0.120014 0.0400023 0 2.32175 
80 1 80 0.120001 0.0800065 0 2.63469 
81 1 81 0.119983 0.120014 0 2.20832 
82 1 82 0.119979 0.160023 0 2.60319 
83 1 83 0.119979 0.200028 0 3.56716 
84 1 84 0.119969 0.24003 0 3.86217 
85 1 85 0.119958 0.280034 0 3.17611 
86 1 86 0.119953 0.320033 0 1.73982 
87 1 87 0.119963 0.360034 0 0.354801 
88 1 88 0.119965 0.400027 0 -0.209316 
89 1 89 0.119968 0.440021 0 0.194606 
90 1 90 0.119957 0.480015 0 1.30859 
91 1 91 0.119943 0.520014 0 2.20898 
92 1 92 0.119935 0.560015 0 2.92963 
93 1 93 0.119928 0.600025 0 2.8547 
94 1 94 0.119933 0.640031 0 2.34323 
95 1 95 0.119934 0.680047 0 2.03829 
96 1 96 0.119933 0.720058 0 2.02109 
97 1 97 0.119936 0.760073 0 2.84337 
98 1 98 0.119939 0.800086 0 4.4805 
99 1 99 0.119941 0.840094 0 5.57302 
100 1 100 0.119939 0.880107 0 5.49357 
101 1 101 0.119921 0.920117 0 5.42406 
102 1 102 0.119882 0.960128 0 6.80212 
103 1 103 0.11984 1.00015 0 8.07563 
104 1 104 0.16 0 0 0 
105 1 105 0.160003 0.0399919 0 1.82196 
106 1 106 0.159989 0.0799975 0 2.45596 
107 1 107 0.159977 0.120007 0 2.37515 
108 1 108 0.159974 0.160012 0 2.97956 
109 1 109 0.159977 0.200019 0 4.17932 
110 1 110 0.159971 0.240027 0 4.55713 
111 1 111 0.159961 0.280032 0 3.75149 
112 1 112 0.159959 0.320035 0 2.15863 
113 1 113 0.159969 0.360035 0 0.559293 
114 1 114 0.159973 0.400035 0 -0.0513417 
115 1 115 0.159972 0.440034 0 0.594024 
116 1 116 0.159957 0.480035 0 1.90583 
117 1 117 0.159937 0.520036 0 3.09937 
118 1 118 0.159919 0.560041 0 3.87921 
119 1 119 0.159907 0.600049 0 3.63244 
120 1 120 0.159903 0.64006 0 2.80982 
121 1 121 0.159903 0.680074 0 2.19264 
122 1 122 0.159899 0.720088 0 2.12713 
123 1 123 0.159903 0.760102 0 3.04262 
124 1 124 0.159908 0.800113 0 4.80447 
125 1 125 0.159914 0.840125 0 6.23832 
126 1 126 0.15991 0.880131 0 6.69449 
127 1 127 0.159889 0.920152 0 7.08192 
128 1 128 0.159851 0.960159 0 8.64165 
129 1 129 0.159806 1.00017 0 9.8641 
130 1 130 0.2 0 0 0 
131 1 131 0.199985 0.0399882 0 1.20067 
132 1 132 0.199973 0.0799947 0 1.89509 
133 1 133 0.199966 0.120002 0 2.24509 
134 1 134 0.199966 0.160004 0 3.25541 
135 1 135 0.199971 0.200012 0 4.44563 
136 1 136 0.19997 0.240024 0 4.66378 
137 1 137 0.199965 0.280026 0 3.86743 
138 1 138 0.199968 0.320032 0 2.39739 
139 1 139 0.199977 0.360033 0 0.948978 
140 1 140 0.19998 0.400039 0 0.454559 
141 1 141 0.199978 0.440045 0 1.32784 
142 1 142 0.199958 0.48005 0 2.8393 
143 1 143 0.199935 0.520058 0 4.28441 
144 1 144 0.199908 0.560062 0 5.08921 
145 1 145 0.199891 0.600072 0 4.71736 
146 1 146 0.199879 0.640084 0 3.79267 
147 1 147 0.199872 0.680101 0 2.87563 
148 1 148 0.199869 0.720114 0 2.75724 
149 1 149 0.199869 0.76013 0 3.65379 
150 1 150 0.199877 0.800139 0 5.29176 
151 1 151 0.199881 0.840155 0 6.87002 
152 1 152 0.199876 0.880163 0 7.6348 
153 1 153 0.199858 0.920182 0 8.42648 
154 1 154 0.199824 0.960194 0 10.0202 
155 1 155 0.199789 1.0002 0 11.0429 
156 1 156 0.24 0 0 0 
157 1 157 0.239971 0.039993 0 0.459556 
158 1 158 0.239957 0.0799953 0 1.19246 
159 1 159 0.239952 0.119996 0 2.18478 
160 1 160 0.239953 0.159998 0 3.42857 
161 1 161 0.239958 0.200007 0 4.14731 
162 1 162 0.23996 0.240016 0 4.19494 
163 1 163 0.239962 0.280018 0 3.72691 
164 1 164 0.239968 0.320024 0 2.669 
165 1 165 0.239975 0.360027 0 1.65389 
166 1 166 0.239977 0.400036 0 1.47618 
167 1 167 0.239973 0.440051 0 2.53833 
168 1 168 0.239953 0.480058 0 4.12155 
169 1 169 0.239928 0.520072 0 5.63291 
170 1 170 0.239896 0.560078 0 6.40334 
171 1 171 0.23987 0.600088 0 5.99165 
172 1 172 0.23985 0.640103 0 5.0966 
173 1 173 0.239837 0.68012 0 4.1719 
174 1 174 0.239832 0.72014 0 4.0806 
175 1 175 0.239834 0.760155 0 4.78791 
176 1 176 0.239844 0.800167 0 6.07645 
177 1 177 0.239849 0.840183 0 7.6343 
178 1 178 0.239841 0.880195 0 8.62434 
179 1 179 0.239826 0.920216 0 9.62884 
180 1 180 0.239803 0.960222 0 11.1047 
181 1 181 0.239775 1.00023 0 11.9016 
182 1 182 0.28 0 0 0 
183 1 183 0.27996 0.0399985 0 -0.457295 
184 1 184 0.279943 0.0799959 0 0.497278 
185 1 185 0.279939 0.119994 0 2.16307 
186 1 186 0.279937 0.159995 0 3.32046 
187 1 187 0.279935 0.200001 0 3.59121 
188 1 188 0.27994 0.240007 0 3.70724 
189 1 189 0.279949 0.280012 0 3.54804 
190 1 190 0.279958 0.320017 0 2.937 
191 1 191 0.279961 0.360023 0 2.59984 
192 1 192 0.27996 0.400036 0 2.84952 
193 1 193 0.279956 0.440054 0 3.96161 
194 1 194 0.279938 0.480069 0 5.44898 
195 1 195 0.279916 0.520083 0 6.87097 
196 1 196 0.279884 0.560092 0 7.6207 
197 1 197 0.279855 0.600102 0 7.37588 
198 1 198 0.279825 0.640118 0 6.66489 
199 1 199 0.279807 0.680135 0 5.88632 
200 1 200 0.279802 0.720155 0 5.91682 
201 1 201 0.279802 0.760176 0 6.38016 
202 1 202 0.279812 0.800189 0 7.13563 
203 1 203 0.279816 0.840212 0 8.42627 
204 1 204 0.279807 0.880224 0 9.68918 
205 1 205 0.279797 0.920245 0 10.9893 
206 1 206 0.279784 0.960254 0 12.1626 
207 1 207 0.279766 1.00026 0 12.6229 
208 1 208 0.32 0 0 0 
209 1 209 0.319953 0.0399991 0 -1.05403 
210 1 210 0.319933 0.0799953 0 0.176426 
211 1 211 0.319925 0.119992 0 2.20785 
212 1 212 0.319915 0.159994 0 3.16608 
213 1 213 0.319906 0.199996 0 3.1781 
214 1 214 0.319914 0.240003 0 3.20538 
215 1 215 0.319926 0.28001 0 3.16293 
216 1 216 0.319933 0.320014 0 3.21418 
217 1 217 0.319932 0.360025 0 3.70787 
218 1 218 0.319928 0.400043 0 4.24944 
219 1 219 0.319924 0.440063 0 5.16149 
220 1 220 0.319912 0.480082 0 6.42341 
221 1 221 0.319895 0.520097 0 7.58495 
222 1 222 0.319865 0.560106 0 8.13627 
223 1 223 0.319831 0.600117 0 8.14646 
224 1 224 0.319795 0.640129 0 7.87473 
225 1 225 0.319772 0.680147 0 7.50912 
226 1 226 0.319764 0.720166 0 7.74295 
227 1 227 0.319768 0.760187 0 8.08101 
228 1 228 0.319777 0.800206 0 8.42616 
229 1 229 0.319781 0.84023 0 9.31796 
230 1 230 0.319776 0.880248 0 10.7678 
231 1 231 0.319769 0.92027 0 12.3396 
232 1 232 0.319765 0.96028 0 13.0865 
233 1 233 0.319755 1.00029 0 13.1302 
234 1 234 0.36 0 0 0 
235 1 235 0.359952 0.0399967 0 -1.24033 
236 1 236 0.359928 0.0799917 0 0.116281 
237 1 237 0.359913 0.119987 0 2.29048 
238 1 238 0.359894 0.159989 0 3.16613 
239 1 239 0.359879 0.199991 0 2.92709 
240 1 240 0.359884 0.239999 0 2.71239 
241 1 241 0.359894 0.280006 0 2.88762 
242 1 242 0.359897 0.320014 0 3.60123 
243 1 243 0.359893 0.360033 0 4.55339 
244 1 244 0.359887 0.400051 0 5.23112 
245 1 245 0.359881 0.440075 0 5.89704 
246 1 246 0.359877 0.480095 0 6.66093 
247 1 247 0.359867 0.520112 0 7.4328 
248 1 248 0.359842 0.560122 0 7.81091 
249 1 249 0.359812 0.600132 0 8.14006 
250 1 250 0.359772 0.640141 0 8.45931 
251 1 251 0.359747 0.680157 0 8.69108 
252 1 252 0.359736 0.720175 0 9.24734 
253 1 253 0.359738 0.760194 0 9.49361 
254 1 254 0.359745 0.800216 0 9.52758 
255 1 255 0.359746 0.840244 0 10.1417 
256 1 256 0.359743 0.880264 0 11.7684 
257 1 257 0.35974 0.92029 0 13.5072 
258 1 258 0.359744 0.960304 0 13.8606 
259 1 259 0.359741 1.00032 0 13.5818 
260 1 260 0.4 0 0 0 
261 1 261 0.399953 0.0399921 0 -1.00733 
262 1 262 0.399922 0.0799831 0 0.369845 
263 1 263 0.399899 0.119976 0 2.40852 
264 1 264 0.399874 0.159977 0 3.0802 
265 1 265 0.399854 0.199979 0 2.62653 
266 1 266 0.399853 0.239985 0 2.37377 
267 1 267 0.399859 0.279998 0 2.76867 
268 1 268 0.399858 0.320012 0 3.78057 
269 1 269 0.399846 0.360037 0 4.9645 
270 1 270 0.399837 0.400057 0 5.75739 
271 1 271 0.399832 0.440083 0 6.10579 
272 1 272 0.399834 0.480107 0 6.17351 
273 1 273 0.39983 0.520123 0 6.42495 
274 1 274 0.39981 0.560136 0 6.70741 
275 1 275 0.399781 0.600147 0 7.37239 
276 1 276 0.39974 0.640154 0 8.29841 
277 1 277 0.399713 0.680166 0 9.1441 
278 1 278 0.399702 0.72018 0 10.0835 
279 1 279 0.399703 0.760202 0 10.4926 
280 1 280 0.399706 0.800224 0 10.3945 
281 1 281 0.399711 0.840254 0 10.852 
282 1 282 0.39971 0.88028 0 12.611 
283 1 283 0.399709 0.920304 0 14.2916 
284 1 284 0.399719 0.960322 0 14.3776 
285 1 285 0.39972 1.00034 0 13.9933 
286 1 286 0.44 0 0 0 
287 1 287 0.439956 0.0399836 0 -0.295302 
288 1 288 0.43992 0.0799687 0 0.969813 
289 1 289 0.439889 0.11996 0 2.42278 
290 1 290 0.439859 0.159958 0 2.76125 
291 1 291 0.439834 0.199959 0 2.34596 
292 1 292 0.439825 0.239966 0 2.14005 
293 1 293 0.439822 0.279984 0 2.50415 
294 1 294 0.439814 0.320005 0 3.61428 
295 1 295 0.439798 0.360032 0 5.06059 
296 1 296 0.439787 0.400059 0 5.86312 
297 1 297 0.439783 0.440085 0 5.73692 
298 1 298 0.439786 0.480109 0 5.29966 
299 1 299 0.439788 0.52013 0 5.11034 
300 1 300 0.439777 0.560145 0 5.19088 
301 1 301 0.439754 0.600157 0 6.22401 
302 1 302 0.439718 0.640165 0 7.82321 
303 1 303 0.439691 0.680175 0 9.25996 
304 1 304 0.439677 0.720184 0 10.4406 
305 1 305 0.439674 0.760206 0 11.0206 
306 1 306 0.439671 0.80023 0 10.9894 
307 1 307 0.439673 0.84026 0 11.3634 
308 1 308 0.439675 0.880289 0 13.0737 
309 1 309 0.439677 0.920314 0 14.5607 
310 1 310 0.439689 0.960333 0 14.6906 
311 1 311 0.439692 1.00035 0 14.4924 
312 1 312 0.48 0 0 0 
313 1 313 0.479954 0.0399738 0 0.614486 
314 1 314 0.479913 0.079954 0 1.51666 
315 1 315 0.479875 0.119943 0 2.10315 
316 1 316 0.479843 0.159937 0 2.17425 
317 1 317 0.479814 0.199938 0 1.96563 
318 1 318 0.479797 0.239945 0 1.82597 
319 1 319 0.479783 0.279964 0 2.23784 
320 1 320 0.479766 0.31999 0 3.49568 
321 1 321 0.479749 0.360022 0 4.93692 
322 1 322 0.479737 0.40005 0 5.65469 
323 1 323 0.479729 0.440078 0 5.29375 
324 1 324 0.479736 0.480102 0 4.48581 
325 1 325 0.479741 0.520126 0 3.98162 
326 1 326 0.479732 0.560146 0 3.97361 
327 1 327 0.479713 0.600161 0 5.22433 
328 1 328 0.479683 0.64017 0 7.26395 
329 1 329 0.479658 0.68018 0 9.15186 
330 1 330 0.479642 0.720187 0 10.4863 
331 1 331 0.479636 0.760206 0 11.1754 
332 1 332 0.479629 0.80023 0 11.2947 
333 1 333 0.479632 0.84026 0 11.6767 
334 1 334 0.479637 0.88029 0 13.1323 
335 1 335 0.479643 0.920313 0 14.3051 
336 1 336 0.479655 0.960335 0 14.7343 
337 1 337 0.479656 1.00036 0 14.9119 
338 1 338 0.52 0 0 0 
339 1 339 0.51995 0.0399669 0 1.53885 
340 1 340 0.519904 0.0799435 0 1.92256 
341 1 341 0.51986 0.119929 0 1.56439 
342 1 342 0.519826 0.159919 0 1.41064 
343 1 343 0.519795 0.199918 0 1.47808 
344 1 344 0.519766 0.239924 0 1.5776 
345 1 345 0.51974 0.279944 0 2.11217 
346 1 346 0.519718 0.319972 0 3.34653 
347 1 347 0.519699 0.360006 0 4.60318 
348 1 348 0.519688 0.400033 0 5.32979 
349 1 349 0.519681 0.440061 0 5.07093 
350 1 350 0.519686 0.480088 0 4.04129 
351 1 351 0.519691 0.520113 0 3.29613 
352 1 352 0.519688 0.560137 0 3.4265 
353 1 353 0.519678 0.600158 0 4.84354 
354 1 354 0.519658 0.640168 0 7.03235 
355 1 355 0.519636 0.680178 0 9.13991 
356 1 356 0.519617 0.720185 0 10.4824 
357 1 357 0.519604 0.760203 0 11.2218 
358 1 358 0.519589 0.800226 0 11.5183 
359 1 359 0.519589 0.840253 0 11.8963 
360 1 360 0.519595 0.880283 0 12.9294 
361 1 361 0.519604 0.920306 0 13.7158 
362 1 362 0.519614 0.960329 0 14.5011 
363 1 363 0.519612 1.00035 0 15.0708 
364 1 364 0.56 0 0 0 
365 1 365 0.559942 0.0399634 0 2.15671 
366 1 366 0.559888 0.0799369 0 2.00782 
367 1 367 0.55984 0.11992 0 0.855911 
368 1 368 0.559804 0.159906 0 0.576704 
369 1 369 0.559768 0.199904 0 0.982377 
370 1 370 0.559729 0.239907 0 1.43172 
371 1 371 0.559692 0.279927 0 2.07611 
372 1 372 0.559665 0.319954 0 3.18764 
373 1 373 0.559647 0.359985 0 4.35818 
374 1 374 0.559638 0.400012 0 5.10244 
375 1 375 0.559631 0.440039 0 4.91244 
376 1 376 0.559633 0.480064 0 4.03815 
377 1 377 0.559634 0.520094 0 3.37402 
378 1 378 0.559633 0.560121 0 3.56668 
379 1 379 0.559627 0.600146 0 5.02541 
380 1 380 0.559614 0.64016 0 7.1953 
381 1 381 0.559596 0.680172 0 9.2555 
382 1 382 0.559575 0.720179 0 10.4499 
383 1 383 0.559558 0.760195 0 11.1809 
384 1 384 0.559541 0.800215 0 11.6682 
385 1 385 0.55954 0.840241 0 12.0138 
386 1 386 0.559547 0.880268 0 12.5281 
387 1 387 0.559559 0.920292 0 12.9386 
388 1 388 0.559566 0.960318 0 14.0042 
389 1 389 0.559564 1.00034 0 14.8578 
390 1 390 0.6 0 0 0 
391 1 391 0.599932 0.0399632 0 2.26369 
392 1 392 0.599872 0.0799345 0 1.69362 
393 1 393 0.599819 0.119915 0 0.0894235 
394 1 394 0.599778 0.159899 0 -0.185429 
395 1 395 0.599737 0.199895 0 0.564471 
396 1 396 0.599688 0.239897 0 1.39698 
397 1 397 0.599641 0.279914 0 2.2404 
398 1 398 0.599609 0.319937 0 3.2095 
399 1 399 0.599593 0.359962 0 4.08381 
400 1 400 0.599586 0.399988 0 4.74461 
401 1 401 0.599578 0.440013 0 4.75841 
402 1 402 0.599577 0.480037 0 4.242 
403 1 403 0.599576 0.520069 0 3.88452 
404 1 404 0.599577 0.560098 0 4.2537 
405 1 405 0.599579 0.600127 0 5.65098 
406 1 406 0.599577 0.640145 0 7.62506 
407 1 407 0.599564 0.680159 0 9.51059 
408 1 408 0.599539 0.720168 0 10.5105 
409 1 409 0.599514 0.760183 0 11.1715 
410 1 410 0.599491 0.8002 0 11.7999 
411 1 411 0.599485 0.840223 0 12.0845 
412 1 412 0.599492 0.880249 0 12.0896 
413 1 413 0.599506 0.920273 0 12.1096 
414 1 414 0.599512 0.960302 0 13.1579 
415 1 415 0.599511 1.00033 0 14.0584 
416 1 416 0.64 0 0 0 
417 1 417 0.639922 0.0399649 0 1.83483 
418 1 418 0.639855 0.0799347 0 0.985499 
419 1 419 0.639795 0.119914 0 -0.662191 
420 1 420 0.639747 0.159896 0 -0.785692 
421 1 421 0.639699 0.199891 0 0.2818 
422 1 422 0.639641 0.239891 0 1.4398 
423 1 423 0.639586 0.279903 0 2.38453 
424 1 424 0.639551 0.31992 0 3.11496 
425 1 425 0.639535 0.35994 0 3.56314 
426 1 426 0.63953 0.399961 0 4.08864 
427 1 427 0.639522 0.439984 0 4.44733 
428 1 428 0.639515 0.480009 0 4.37839 
429 1 429 0.639509 0.520041 0 4.41697 
430 1 430 0.639508 0.56007 0 5.15906 
431 1 431 0.63951 0.600103 0 6.49517 
432 1 432 0.639514 0.640125 0 8.08059 
433 1 433 0.639504 0.680142 0 9.70455 
434 1 434 0.639481 0.720154 0 10.5902 
435 1 435 0.639455 0.760168 0 11.26 
436 1 436 0.639431 0.800183 0 12.0392 
437 1 437 0.639421 0.840203 0 12.2376 
438 1 438 0.639429 0.880226 0 11.7965 
439 1 439 0.639443 0.920252 0 11.4385 
440 1 440 0.63945 0.960283 0 12.1572 
441 1 441 0.639455 1.00031 0 12.866 
442 1 442 0.68 0 0 0 
443 1 443 0.679916 0.0399673 0 1.00254 
444 1 444 0.679843 0.0799363 0 0.0670772 
445 1 445 0.679776 0.119913 0 -1.24526 
446 1 446 0.679719 0.159896 0 -1.19001 
447 1 447 0.679661 0.199889 0 0.00304018 
448 1 448 0.679595 0.239888 0 1.39724 
449 1 449 0.679534 0.279894 0 2.43122 
450 1 450 0.679495 0.319903 0 2.93242 
451 1 451 0.679476 0.359917 0 2.98734 
452 1 452 0.679469 0.399934 0 3.25826 
453 1 453 0.67946 0.439956 0 3.81671 
454 1 454 0.679449 0.479979 0 4.31853 
455 1 455 0.679437 0.520011 0 4.90479 
456 1 456 0.679438 0.56004 0 5.95099 
457 1 457 0.679446 0.600074 0 7.19133 
458 1 458 0.679456 0.640099 0 8.45289 
459 1 459 0.679451 0.680121 0 9.82429 
460 1 460 0.679427 0.720137 0 10.6232 
461 1 461 0.679396 0.76015 0 11.3137 
462 1 462 0.679368 0.800163 0 12.185 
463 1 463 0.679353 0.840179 0 12.3038 
464 1 464 0.679358 0.880201 0 11.5672 
465 1 465 0.67937 0.920229 0 10.8919 
466 1 466 0.679381 0.960261 0 11.0499 
467 1 467 0.679396 1.00029 0 11.387 
468 1 468 0.72 0 0 0 
469 1 469 0.719912 0.0399695 0 -0.00602138 
470 1 470 0.719833 0.0799385 0 -0.894059 
471 1 471 0.719757 0.119915 0 -1.65133 
472 1 472 0.71969 0.159897 0 -1.38335 
473 1 473 0.719623 0.199888 0 -0.192044 
474 1 474 0.719551 0.239885 0 1.29613 
475 1 475 0.719485 0.279885 0 2.34046 
476 1 476 0.719442 0.319886 0 2.56354 
477 1 477 0.719418 0.359894 0 2.19784 
478 1 478 0.719407 0.399907 0 2.19798 
479 1 479 0.719393 0.439928 0 2.89226 
480 1 480 0.719377 0.47995 0 3.92734 
481 1 481 0.719361 0.519981 0 5.11644 
482 1 482 0.719357 0.560009 0 6.49902 
483 1 483 0.71936 0.600042 0 7.62548 
484 1 484 0.719371 0.640071 0 8.5278 
485 1 485 0.71937 0.680096 0 9.65045 
486 1 486 0.719351 0.720116 0 10.4999 
487 1 487 0.719323 0.760129 0 11.3326 
488 1 488 0.719298 0.800142 0 12.2858 
489 1 489 0.71928 0.840155 0 12.3712 
490 1 490 0.719281 0.880175 0 11.4957 
491 1 491 0.719291 0.920202 0 10.5572 
492 1 492 0.719306 0.960236 0 10.0006 
493 1 493 0.71933 1.00027 0 9.84259 
494 1 494 0.76 0 0 0 
495 1 495 0.759914 0.0399712 0 -0.89785 
496 1 496 0.759831 0.0799411 0 -1.60224 
497 1 497 0.759747 0.119917 0 -1.7373 
498 1 498 0.759667 0.159899 0 -1.32921 
499 1 499 0.759589 0.199889 0 -0.302601 
500 1 500 0.759514 0.239882 0 1.12212 
501 1 501 0.759445 0.279876 0 2.12637 
502 1 502 0.759397 0.31987 0 2.15923 
503 1 503 0.759363 0.359873 0 1.49332 
504 1 504 0.759344 0.399882 0 1.26446 
505 1 505 0.759326 0.439901 0 2.02914 
506 1 506 0.759305 0.479924 0 3.44737 
507 1 507 0.759285 0.519951 0 5.07472 
508 1 508 0.759282 0.559978 0 6.70392 
509 1 509 0.759285 0.60001 0 7.74628 
510 1 510 0.759298 0.64004 0 8.34468 
511 1 511 0.759299 0.680069 0 9.22505 
512 1 512 0.759282 0.720092 0 10.1441 
513 1 513 0.759255 0.760107 0 11.133 
514 1 514 0.759229 0.800119 0 12.1381 
515 1 515 0.759206 0.84013 0 12.2787 
516 1 516 0.759201 0.880148 0 11.4785 
517 1 517 0.759206 0.920175 0 10.4624 
518 1 518 0.759225 0.960209 0 9.27628 
519 1 519 0.759256 1.00024 0 8.62676 
520 1 520 0.8 0 0 0 
521 1 521 0.799915 0.0399725 0 -1.43881 
522 1 522 0.799826 0.0799442 0 -1.86285 
523 1 523 0.799734 0.11992 0 -1.43006 
524 1 524 0.799644 0.159902 0 -0.948225 
525 1 525 0.799559 0.199891 0 -0.182727 
526 1 526 0.799481 0.239881 0 1.06012 
527 1 527 0.799412 0.279869 0 1.96461 
528 1 528 0.799359 0.319857 0 1.88647 
529 1 529 0.799315 0.359855 0 1.07953 
530 1 530 0.799284 0.399861 0 0.636384 
531 1 531 0.799259 0.439879 0 1.3156 
532 1 532 0.799233 0.4799 0 2.9901 
533 1 533 0.799209 0.519925 0 4.94443 
534 1 534 0.799199 0.55995 0 6.65604 
535 1 535 0.799194 0.599979 0 7.55852 
536 1 536 0.799201 0.64001 0 7.93292 
537 1 537 0.799202 0.68004 0 8.64253 
538 1 538 0.799193 0.720067 0 9.66228 
539 1 539 0.799174 0.760083 0 10.8139 
540 1 540 0.799154 0.800097 0 11.8366 
541 1 541 0.799131 0.840106 0 12.0721 
542 1 542 0.799121 0.880124 0 11.4387 
543 1 543 0.79912 0.920149 0 10.4645 
544 1 544 0.799137 0.960184 0 8.8417 
545 1 545 0.799171 1.00022 0 7.79483 
546 1 546 0.84 0 0 0 
547 1 547 0.839918 0.0399738 0 -1.50639 
548 1 548 0.839825 0.0799482 0 -1.55328 
549 1 549 0.839726 0.119926 0 -0.649478 
550 1 550 0.839627 0.159908 0 -0.120932 
551 1 551 0.839535 0.199895 0 0.355084 
552 1 552 0.839458 0.239881 0 1.3034 
553 1 553 0.83939 0.279864 0 2.00385 
554 1 554 0.83933 0.319848 0 1.83498 
555 1 555 0.839274 0.359842 0 1.04574 
556 1 556 0.83923 0.399844 0 0.510721 
557 1 557 0.839195 0.43986 0 1.01249 
558 1 558 0.839165 0.479879 0 2.70349 
559 1 559 0.839138 0.519901 0 4.77433 
560 1 560 0.839127 0.559924 0 6.50647 
561 1 561 0.839119 0.59995 0 7.35224 
562 1 562 0.839122 0.63998 0 7.57372 
563 1 563 0.839122 0.680012 0 8.0902 
564 1 564 0.839116 0.72004 0 9.14806 
565 1 565 0.8391 0.760059 0 10.4223 
566 1 566 0.839082 0.800075 0 11.4496 
567 1 567 0.839057 0.840085 0 11.8747 
568 1 568 0.83904 0.880103 0 11.5466 
569 1 569 0.839033 0.920126 0 10.77 
570 1 570 0.839046 0.960161 0 8.97182 
571 1 571 0.839078 1.0002 0 7.66974 
572 1 572 0.88 0 0 0 
573 1 573 0.879917 0.0399752 0 -1.11925 
574 1 574 0.879818 0.0799531 0 -0.739335 
575 1 575 0.879712 0.119933 0 0.479287 
576 1 576 0.879608 0.159917 0 1.03515 
577 1 577 0.879513 0.199901 0 1.26901 
578 1 578 0.879438 0.239884 0 1.87705 
579 1 579 0.87937 0.279865 0 2.31621 
580 1 580 0.879305 0.319846 0 2.10531 
581 1 581 0.879237 0.359836 0 1.45964 
582 1 582 0.879179 0.399835 0 0.928376 
583 1 583 0.879134 0.439847 0 1.25048 
584 1 584 0.879099 0.479863 0 2.84469 
585 1 585 0.879068 0.519882 0 4.85068 
586 1 586 0.879049 0.559902 0 6.48845 
587 1 587 0.879029 0.599924 0 7.34052 
588 1 588 0.879022 0.639953 0 7.56763 
589 1 589 0.879019 0.679984 0 7.97826 
590 1 590 0.87902 0.720014 0 9.00827 
591 1 591 0.879013 0.760037 0 10.2996 
592 1 592 0.879004 0.800056 0 11.2461 
593 1 593 0.878982 0.840069 0 11.7873 
594 1 594 0.87896 0.880088 0 11.6896 
595 1 595 0.878947 0.920111 0 11.1464 
596 1 596 0.878951 0.960145 0 9.46749 
597 1 597 0.878977 1.00019 0 8.11246 
598 1 598 0.92 0 0 0 
599 1 599 0.919915 0.0399773 0 -0.36836 
600 1 600 0.919812 0.0799592 0 0.466615 
601 1 601 0.919703 0.119943 0 1.85892 
602 1 602 0.919595 0.159928 0 2.44343 
603 1 603 0.919498 0.19991 0 2.4982 
604 1 604 0.919424 0.239891 0 2.72513 
605 1 605 0.919356 0.279869 0 2.85807 
606 1 606 0.919285 0.319849 0 2.68748 
607 1 607 0.919206 0.359836 0 2.35726 
608 1 608 0.919135 0.399831 0 1.96205 
609 1 609 0.919078 0.439838 0 2.09522 
610 1 610 0.919036 0.47985 0 3.45368 
611 1 611 0.919003 0.519865 0 5.26284 
612 1 612 0.918981 0.559882 0 6.77405 
613 1 613 0.918958 0.599901 0 7.6855 
614 1 614 0.918945 0.639928 0 7.99886 
615 1 615 0.918938 0.679957 0 8.33135 
616 1 616 0.918939 0.719989 0 9.20962 
617 1 617 0.918934 0.760015 0 10.364 
618 1 618 0.918926 0.800039 0 11.1828 
619 1 619 0.918907 0.840057 0 11.8599 
620 1 620 0.918881 0.880078 0 12.0032 
621 1 621 0.918863 0.920102 0 11.7171 
622 1 622 0.918857 0.960135 0 10.3735 
623 1 623 0.918873 1.00018 0 9.14194 
624 1 624 0.96 0 0 0 
625 1 625 0.959908 0.0399802 0 0.510184 
626 1 626 0.959799 0.0799663 0 1.7336 
627 1 627 0.959687 0.119953 0 3.15704 
628 1 628 0.95958 0.159939 0 3.79412 
629 1 629 0.959485 0.199921 0 3.79452 
630 1 630 0.959411 0.2399 0 3.70184 
631 1 631 0.959341 0.279878 0 3.54919 
632 1 632 0.959263 0.319858 0 3.44742 
633 1 633 0.959174 0.359843 0 3.49377 
634 1 634 0.959091 0.399834 0 3.36572 
635 1 635 0.959023 0.439835 0 3.40511 
636 1 636 0.958976 0.479842 0 4.44665 
637 1 637 0.958937 0.519852 0 5.92607 
638 1 638 0.958907 0.559867 0 7.27749 
639 1 639 0.958873 0.599882 0 8.28774 
640 1 640 0.958849 0.639906 0 8.72788 
641 1 641 0.958836 0.679933 0 8.99727 
642 1 642 0.95884 0.719966 0 9.66808 
643 1 643 0.958843 0.759996 0 10.6141 
644 1 644 0.958841 0.800025 0 11.2542 
645 1 645 0.958827 0.840049 0 11.9725 
646 1 646 0.9588 0.880073 0 12.296 
647 1 647 0.958779 0.920099 0 12.2634 
648 1 648 0.958764 0.960132 0 11.3748 
649 1 649 0.95877 1.00018 0 10.3848 
650 1 650 1 0 0 0 
651 1 651 0.999902 0.0399839 0 1.36499 
652 1 652 0.999789 0.0799737 0 2.85157 
653 1 653 0.999678 0.119963 0 4.1514 
654 1 654 0.999572 0.15995 0 4.82104 
655 1 655 0.999478 0.199931 0 4.84579 
656 1 656 0.999402 0.23991 0 4.51495 
657 1 657 0.999328 0.279889 0 4.17894 
658 1 658 0.999244 0.31987 0 4.24328 
659 1 659 0.999148 0.359853 0 4.7222 
660 1 660 0.999055 0.399841 0 4.95659 
661 1 661 0.998975 0.439835 0 5.00876 
662 1 662 0.99892 0.479837 0 5.69963 
663 1 663 0.998876 0.519842 0 6.7272 
664 1 664 0.998843 0.559853 0 7.81418 
665 1 665 0.998808 0.599866 0 8.88833 
666 1 666 0.99878 0.639887 0 9.50416 
667 1 667 0.99876 0.679911 0 9.76361 
668 1 668 0.998757 0.719944 0 10.1795 
669 1 669 0.998757 0.759977 0 10.8452 
670 1 670 0.998755 0.800011 0 11.3234 
671 1 671 0.998745 0.840043 0 12.0739 
672 1 672 0.998719 0.880071 0 12.5759 
673 1 673 0.998697 0.9201 0 12.8084 
674 1 674 0.998675 0.960132 0 12.4236 
675 1 675 0.998674 1.00017 0 11.7438 
676 1 676 1.04 0 0 0 
677 1 677 1.03989 0.0399883 0 1.98486 
678 1 678 1.03978 0.0799809 0 3.6041 
679 1 679 1.03967 0.119972 0 4.71152 
680 1 680 1.03956 0.159959 0 5.37272 
681 1 681 1.03947 0.19994 0 5.43455 
682 1 682 1.03939 0.23992 0 4.95976 
683 1 683 1.03931 0.279901 0 4.57258 
684 1 684 1.03922 0.319885 0 4.8665 
685 1 685 1.03912 0.359868 0 5.76422 
686 1 686 1.03902 0.399853 0 6.38098 
687 1 687 1.03893 0.439841 0 6.48125 
688 1 688 1.03887 0.479838 0 6.78015 
689 1 689 1.03881 0.519839 0 7.31809 
690 1 690 1.03877 0.559846 0 8.09081 
691 1 691 1.03873 0.599856 0 9.12858 
692 1 692 1.03869 0.639874 0 9.88315 
693 1 693 1.03866 0.679894 0 10.2135 
694 1 694 1.03866 0.719925 0 10.4595 
695 1 695 1.03866 0.75996 0 10.855 
696 1 696 1.03866 0.799998 0 11.2149 
697 1 697 1.03865 0.840036 0 12.0246 
698 1 698 1.03863 0.880069 0 12.7398 
699 1 699 1.03861 0.920102 0 13.2429 
700 1 700 1.03859 0.960134 0 13.2864 
701 1 701 1.03858 1.00017 0 12.891 
702 1 702 1.08 0 0 0 
703 1 703 1.07989 0.0399922 0 2.33538 
704 1 704 1.07977 0.0799861 0 3.93727 
705 1 705 1.07966 0.119977 0 4.77644 
706 1 706 1.07956 0.159964 0 5.37227 
707 1 707 1.07947 0.199946 0 5.47898 
708 1 708 1.07938 0.239928 0 4.95626 
709 1 709 1.0793 0.279912 0 4.6011 
710 1 710 1.0792 0.319898 0 5.07617 
711 1 711 1.0791 0.359882 0 6.25987 
712 1 712 1.07899 0.399866 0 7.23601 
713 1 713 1.07889 0.439849 0 7.50004 
714 1 714 1.07882 0.479841 0 7.48891 
715 1 715 1.07876 0.519837 0 7.56672 
716 1 716 1.07871 0.559842 0 8.03322 
717 1 717 1.07867 0.599849 0 9.02916 
718 1 718 1.07862 0.639863 0 9.92411 
719 1 719 1.07859 0.679881 0 10.37 
720 1 720 1.07857 0.719909 0 10.5953 
721 1 721 1.07856 0.759945 0 10.8704 
722 1 722 1.07856 0.799986 0 11.1796 
723 1 723 1.07856 0.84003 0 11.9744 
724 1 724 1.07855 0.880067 0 12.8537 
725 1 725 1.07853 0.920103 0 13.6145 
726 1 726 1.07851 0.960136 0 13.8705 
727 1 727 1.0785 1.00017 0 13.5994 
728 1 728 1.12 0 0 0 
729 1 729 1.11988 0.0399951 0 2.31604 
730 1 730 1.11976 0.0799889 0 3.82654 
731 1 731 1.11966 0.119979 0 4.45525 
732 1 732 1.11956 0.159966 0 4.91007 
733 1 733 1.11946 0.199949 0 4.95646 
734 1 734 1.11937 0.239934 0 4.42178 
735 1 735 1.11928 0.279922 0 4.17141 
736 1 736 1.11918 0.319912 0 4.78892 
737 1 737 1.11907 0.359898 0 6.14084 
738 1 738 1.11896 0.399882 0 7.42126 
739 1 739 1.11885 0.439863 0 7.93269 
740 1 740 1.11877 0.479852 0 7.76512 
741 1 741 1.1187 0.519843 0 7.52538 
742 1 742 1.11864 0.559845 0 7.71791 
743 1 743 1.11859 0.599849 0 8.62603 
744 1 744 1.11854 0.639859 0 9.69516 
745 1 745 1.11849 0.679874 0 10.368 
746 1 746 1.11847 0.719899 0 10.6797 
747 1 747 1.11846 0.759934 0 10.85 
748 1 748 1.11846 0.799976 0 11.1382 
749 1 749 1.11846 0.840023 0 11.9314 
750 1 750 1.11846 0.880064 0 12.9305 
751 1 751 1.11845 0.920103 0 13.9419 
752 1 752 1.11843 0.960137 0 14.3019 
753 1 753 1.11842 1.00017 0 14.0525 
754 1 754 1.16 0 0 0 
755 1 755 1.15988 0.0399961 0 2.04315 
756 1 756 1.15977 0.0799882 0 3.38923 
757 1 757 1.15966 0.119976 0 3.82433 
758 1 758 1.15956 0.159962 0 4.07992 
759 1 759 1.15946 0.199947 0 4.01791 
760 1 760 1.15936 0.239935 0 3.52108 
761 1 761 1.15926 0.279927 0 3.40903 
762 1 762 1.15915 0.31992 0 4.0888 
763 1 763 1.15905 0.359909 0 5.45037 
764 1 764 1.15893 0.399896 0 6.92913 
765 1 765 1.15882 0.439876 0 7.78029 
766 1 766 1.15873 0.479863 0 7.70321 
767 1 767 1.15865 0.519851 0 7.38322 
768 1 768 1.15858 0.55985 0 7.3965 
769 1 769 1.15853 0.599852 0 8.1518 
770 1 770 1.15848 0.639859 0 9.30561 
771 1 771 1.15843 0.679872 0 10.1934 
772 1 772 1.15839 0.719893 0 10.6971 
773 1 773 1.15837 0.759927 0 10.8433 
774 1 774 1.15836 0.799968 0 11.1414 
775 1 775 1.15837 0.840016 0 11.9351 
776 1 776 1.15837 0.880061 0 12.9281 
777 1 777 1.15836 0.920102 0 14.0274 
778 1 778 1.15835 0.960137 0 14.281 
779 1 779 1.15834 1.00017 0 13.915 
780 1 780 1.2 0 0 0 
781 1 781 1.19988 0.0399952 0 1.50661 
782 1 782 1.19977 0.0799846 0 2.70519 
783 1 783 1.19966 0.11997 0 3.09731 
784 1 784 1.19956 0.159956 0 3.15719 
785 1 785 1.19946 0.199943 0 2.926 
786 1 786 1.19935 0.239935 0 2.46762 
787 1 787 1.19923 0.279931 0 2.47035 
788 1 788 1.19912 0.319928 0 3.13475 
789 1 789 1.19902 0.359921 0 4.42983 
790 1 790 1.1989 0.399911 0 6.04249 
791 1 791 1.19879 0.439893 0 7.242 
792 1 792 1.19868 0.479879 0 7.3649 
793 1 793 1.19859 0.519865 0 7.09263 
794 1 794 1.19852 0.559861 0 7.00009 
795 1 795 1.19846 0.59986 0 7.573 
796 1 796 1.1984 0.639865 0 8.74164 
797 1 797 1.19834 0.679876 0 9.80177 
798 1 798 1.1983 0.719894 0 10.5664 
799 1 799 1.19827 0.759925 0 10.7614 