ITEM: TIMESTEP
0
ITEM: NUMBER OF ATOMS
7127
ITEM: BOX BOUNDS sm sm sm
0 4
0 2
0 0
ITEM: ATOMS id type tag x y z vx 
0 1 0 0 0 0 0 
1 1 1 0 0.04 0 0 
2 1 2 0 0.08 0 0 
3 1 3 0 0.12 0 0 
4 1 4 0 0.16 0 0 
5 1 5 0 0.2 0 0 
6 1 6 0 0.24 0 0 
7 1 7 0 0.28 0 0 
8 1 8 0 0.32 0 0 
9 1 9 0 0.36 0 0 
10 1 10 0 0.4 0 0 
11 1 11 0 0.44 0 0 
12 1 12 0 0.48 0 0 
13 1 13 0 0.52 0 0 
14 1 14 0 0.56 0 0 
15 1 15 0 0.6 0 0 
16 1 16 0 0.64 0 0 
17 1 17 0 0.68 0 0 
18 1 18 0 0.72 0 0 
19 1 19 0 0.76 0 0 
20 1 20 0 0.8 0 0 
21 1 21 0 0.84 0 0 
22 1 22 0 0.88 0 0 
23 1 23 0 0.92 0 0 
24 1 24 0 0.96 0 0 
25 1 25 0 1 0 0 
26 1 26 0.04 0 0 0 
27 1 27 0.0399867 0.0399872 0 -0.122122 
28 1 28 0.0399816 0.0799824 0 -0.184231 
29 1 29 0.0399774 0.119979 0 -0.271453 
30 1 30 0.0399747 0.159976 0 -0.281702 
31 1 31 0.0399738 0.199973 0 -0.267237 
32 1 32 0.0399721 0.23997 0 -0.314271 
33 1 33 0.0399728 0.279969 0 -0.337939 
34 1 34 0.0399728 0.319968 0 -0.407293 
35 1 35 0.0399746 0.359969 0 -0.553262 
36 1 36 0.0399747 0.39997 0 -0.655428 
37 1 37 0.0399757 0.439972 0 -0.716249 
38 1 38 0.0399747 0.479974 0 -0.694926 
39 1 39 0.0399736 0.519976 0 -0.67484 
40 1 40 0.0399716 0.559978 0 -0.512579 
41 1 41 0.0399694 0.599982 0 -0.325684 
42 1 42 0.0399677 0.639984 0 -0.0953269 
43 1 43 0.039965 0.679987 0 -0.0133635 
44 1 44 0.0399651 0.719991 0 0.0323071 
45 1 45 0.0399618 0.759995 0 0.141156 
46 1 46 0.0399609 0.800002 0 0.0492827 
47 1 47 0.0399607 0.840008 0 0.0391715 
48 1 48 0.0399608 0.880016 0 -0.034085 
49 1 49 0.0399597 0.920025 0 -0.0958678 
50 1 50 0.0399609 0.960034 0 -0.112317 
51 1 51 0.0399296 1.00007 0 -0.147075 
52 1 52 0.08 0 0 0 
53 1 53 0.0799787 0.039983 0 -0.0656625 
54 1 54 0.0799667 0.0799709 0 -0.259163 
55 1 55 0.0799578 0.119963 0 -0.489307 
56 1 56 0.0799533 0.159955 0 -0.58597 
57 1 57 0.0799502 0.19995 0 -0.63094 
58 1 58 0.0799478 0.239945 0 -0.718791 
59 1 59 0.079947 0.279943 0 -0.791025 
60 1 60 0.0799464 0.319941 0 -0.906924 
61 1 61 0.079947 0.359942 0 -1.05315 
62 1 62 0.0799477 0.399942 0 -1.12491 
63 1 63 0.0799468 0.439946 0 -1.20119 
64 1 64 0.0799469 0.479948 0 -1.1632 
65 1 65 0.079942 0.519952 0 -1.11191 
66 1 66 0.0799416 0.559956 0 -0.857185 
67 1 67 0.0799352 0.599962 0 -0.614513 
68 1 68 0.0799355 0.639967 0 -0.299132 
69 1 69 0.0799268 0.679974 0 -0.0620135 
70 1 70 0.0799263 0.719981 0 -0.0041338 
71 1 71 0.0799199 0.759991 0 0.100266 
72 1 72 0.0799189 0.800002 0 0.0402964 
73 1 73 0.0799171 0.840015 0 0.0590618 
74 1 74 0.0799157 0.880029 0 -0.0301957 
75 1 75 0.0799176 0.920044 0 -0.1078 
76 1 76 0.0799054 0.960069 0 -0.194157 
77 1 77 0.0798921 1.00008 0 -0.306309 
78 1 78 0.12 0 0 0 
79 1 79 0.119974 0.0399802 0 -0.121576 
80 1 80 0.119956 0.0799632 0 -0.409553 
81 1 81 0.119943 0.119949 0 -0.6847 
82 1 82 0.119935 0.159939 0 -0.814601 
83 1 83 0.119929 0.199931 0 -0.899914 
84 1 84 0.119925 0.239924 0 -1.05401 
85 1 85 0.119922 0.279921 0 -1.20677 
86 1 86 0.119919 0.319918 0 -1.35854 
87 1 87 0.119919 0.359918 0 -1.46695 
88 1 88 0.119919 0.399919 0 -1.4758 
89 1 89 0.119918 0.43992 0 -1.51324 
90 1 90 0.119916 0.479924 0 -1.43628 
91 1 91 0.119911 0.519927 0 -1.35562 
92 1 92 0.119907 0.559934 0 -1.05778 
93 1 93 0.119901 0.59994 0 -0.785513 
94 1 94 0.119897 0.639951 0 -0.488077 
95 1 95 0.119894 0.679959 0 -0.186341 
96 1 96 0.119887 0.719974 0 -0.0587402 
97 1 97 0.11988 0.759986 0 -0.0328488 
98 1 98 0.119876 0.800003 0 -0.049919 
99 1 99 0.119872 0.84002 0 -0.0360021 
100 1 100 0.119872 0.880039 0 -0.185177 
101 1 101 0.119868 0.920061 0 -0.178405 
102 1 102 0.119861 0.960079 0 -0.314099 
103 1 103 0.11985 1.0001 0 -0.510278 
104 1 104 0.16 0 0 0 
105 1 105 0.159971 0.0399773 0 -0.335521 
106 1 106 0.159948 0.0799559 0 -0.632323 
107 1 107 0.159931 0.119938 0 -0.817974 
108 1 108 0.159919 0.159925 0 -0.93745 
109 1 109 0.15991 0.199915 0 -1.05918 
110 1 110 0.159903 0.239908 0 -1.2424 
111 1 111 0.159898 0.279903 0 -1.4136 
112 1 112 0.159893 0.3199 0 -1.57882 
113 1 113 0.159892 0.359899 0 -1.69646 
114 1 114 0.159889 0.399899 0 -1.70399 
115 1 115 0.159887 0.4399 0 -1.71904 
116 1 116 0.159883 0.479903 0 -1.60192 
117 1 117 0.159877 0.519907 0 -1.49443 
118 1 118 0.159871 0.559913 0 -1.16509 
119 1 119 0.159865 0.599921 0 -0.827386 
120 1 120 0.159859 0.639932 0 -0.489111 
121 1 121 0.15985 0.679947 0 -0.255203 
122 1 122 0.159844 0.719962 0 -0.136989 
123 1 123 0.159834 0.759982 0 -0.150488 
124 1 124 0.159831 0.8 0 -0.194699 
125 1 125 0.159825 0.840023 0 -0.234693 
126 1 126 0.159824 0.880046 0 -0.45183 
127 1 127 0.159822 0.920067 0 -0.348465 
128 1 128 0.159815 0.960093 0 -0.454984 
129 1 129 0.159808 1.00011 0 -0.67624 
130 1 130 0.2 0 0 0 
131 1 131 0.199969 0.0399746 0 -0.607025 
132 1 132 0.199943 0.0799503 0 -0.882622 
133 1 133 0.199921 0.11993 0 -0.928399 
134 1 134 0.199906 0.159914 0 -1.02471 
135 1 135 0.199893 0.199903 0 -1.1466 
136 1 136 0.199883 0.239895 0 -1.28266 
137 1 137 0.199875 0.27989 0 -1.45021 
138 1 138 0.199869 0.319886 0 -1.63511 
139 1 139 0.199865 0.359884 0 -1.7513 
140 1 140 0.199861 0.399883 0 -1.73969 
141 1 141 0.199857 0.439883 0 -1.72799 
142 1 142 0.199851 0.479885 0 -1.59749 
143 1 143 0.199844 0.519889 0 -1.48687 
144 1 144 0.199836 0.559896 0 -1.18813 
145 1 145 0.199827 0.599906 0 -0.885623 
146 1 146 0.199821 0.639919 0 -0.547755 
147 1 147 0.199813 0.679935 0 -0.354608 
148 1 148 0.199805 0.719955 0 -0.30431 
149 1 149 0.199793 0.759975 0 -0.352404 
150 1 150 0.199787 0.799999 0 -0.375029 
151 1 151 0.199779 0.840022 0 -0.440445 
152 1 152 0.199778 0.880048 0 -0.692767 
153 1 153 0.199775 0.920073 0 -0.584201 
154 1 154 0.199769 0.960096 0 -0.610864 
155 1 155 0.199767 1.00012 0 -0.738887 
156 1 156 0.24 0 0 0 
157 1 157 0.239968 0.0399719 0 -0.81706 
158 1 158 0.239939 0.0799458 0 -1.07409 
159 1 159 0.239914 0.119924 0 -1.014 
160 1 160 0.239892 0.159907 0 -1.03877 
161 1 161 0.239877 0.199894 0 -1.11896 
162 1 162 0.239864 0.239887 0 -1.22834 
163 1 163 0.239854 0.27988 0 -1.39419 
164 1 164 0.239846 0.319877 0 -1.54113 
165 1 165 0.23984 0.359874 0 -1.63397 
166 1 166 0.239834 0.399873 0 -1.64766 
167 1 167 0.239828 0.439873 0 -1.6511 
168 1 168 0.23982 0.479875 0 -1.55769 
169 1 169 0.23981 0.519879 0 -1.45008 
170 1 170 0.2398 0.559886 0 -1.17078 
171 1 171 0.239791 0.599895 0 -0.932963 
172 1 172 0.23978 0.639909 0 -0.683476 
173 1 173 0.239767 0.679926 0 -0.543244 
174 1 174 0.239757 0.719946 0 -0.477361 
175 1 175 0.239745 0.759969 0 -0.595934 
176 1 176 0.23974 0.799992 0 -0.689848 
177 1 177 0.239731 0.840018 0 -0.765637 
178 1 178 0.239729 0.880043 0 -1.00622 
179 1 179 0.239726 0.92007 0 -0.928249 
180 1 180 0.239724 0.960095 0 -0.809726 
181 1 181 0.239724 1.00012 0 -0.741564 
182 1 182 0.28 0 0 0 
183 1 183 0.279968 0.0399703 0 -0.865129 
184 1 184 0.279935 0.0799437 0 -1.09227 
185 1 185 0.279907 0.119921 0 -0.982091 
186 1 186 0.279881 0.159903 0 -0.951766 
187 1 187 0.279862 0.19989 0 -1.03579 
188 1 188 0.279846 0.239882 0 -1.13841 
189 1 189 0.279834 0.279875 0 -1.27729 
190 1 190 0.279825 0.319871 0 -1.3845 
191 1 191 0.279816 0.359868 0 -1.50756 
192 1 192 0.279809 0.399866 0 -1.60244 
193 1 193 0.279801 0.439867 0 -1.62734 
194 1 194 0.27979 0.47987 0 -1.57184 
195 1 195 0.279781 0.519874 0 -1.48675 
196 1 196 0.279767 0.559881 0 -1.25885 
197 1 197 0.279754 0.599891 0 -1.08241 
198 1 198 0.279741 0.639905 0 -0.885948 
199 1 199 0.279729 0.679923 0 -0.841117 
200 1 200 0.279719 0.719942 0 -0.776786 
201 1 201 0.279703 0.759964 0 -0.867973 
202 1 202 0.279695 0.799987 0 -1.02286 
203 1 203 0.279686 0.84001 0 -1.10187 
204 1 204 0.279682 0.880036 0 -1.26081 
205 1 205 0.279677 0.920061 0 -1.20886 
206 1 206 0.279676 0.960087 0 -0.935616 
207 1 207 0.27968 1.00011 0 -0.650541 
208 1 208 0.32 0 0 0 
209 1 209 0.319966 0.0399701 0 -0.760103 
210 1 210 0.319932 0.0799429 0 -0.932863 
211 1 211 0.319901 0.11992 0 -0.839599 
212 1 212 0.319871 0.159902 0 -0.855107 
213 1 213 0.319849 0.199889 0 -0.979527 
214 1 214 0.31983 0.239881 0 -1.04035 
215 1 215 0.319816 0.279874 0 -1.16161 
216 1 216 0.319806 0.31987 0 -1.29395 
217 1 217 0.319795 0.359866 0 -1.46959 
218 1 218 0.319786 0.399866 0 -1.6228 
219 1 219 0.319775 0.439866 0 -1.67746 
220 1 220 0.319762 0.47987 0 -1.67275 
221 1 221 0.31975 0.519875 0 -1.60997 
222 1 222 0.319733 0.559883 0 -1.42593 
223 1 223 0.319719 0.599893 0 -1.30455 
224 1 224 0.319701 0.639906 0 -1.14329 
225 1 225 0.319683 0.679921 0 -1.17295 
226 1 226 0.319669 0.719939 0 -1.20337 
227 1 227 0.319656 0.759958 0 -1.28977 
228 1 228 0.319649 0.799979 0 -1.38936 
229 1 229 0.319637 0.84 0 -1.43476 
230 1 230 0.319632 0.880023 0 -1.50474 
231 1 231 0.319626 0.920049 0 -1.44699 
232 1 232 0.319629 0.960073 0 -1.05587 
233 1 233 0.319633 1.0001 0 -0.602955 
234 1 234 0.36 0 0 0 
235 1 235 0.359966 0.0399701 0 -0.473161 
236 1 236 0.359929 0.0799438 0 -0.610858 
237 1 237 0.359895 0.119921 0 -0.622226 
238 1 238 0.359863 0.159904 0 -0.714038 
239 1 239 0.359836 0.19989 0 -0.879526 
240 1 240 0.359814 0.239881 0 -0.986842 
241 1 241 0.359799 0.279874 0 -1.17436 
242 1 242 0.359786 0.319869 0 -1.33553 
243 1 243 0.359775 0.359865 0 -1.53608 
244 1 244 0.359764 0.399865 0 -1.72853 
245 1 245 0.359751 0.439865 0 -1.87008 
246 1 246 0.359736 0.47987 0 -1.94596 
247 1 247 0.359723 0.519877 0 -1.87812 
248 1 248 0.359703 0.559886 0 -1.70411 
249 1 249 0.359683 0.599897 0 -1.61456 
250 1 250 0.359664 0.63991 0 -1.52105 
251 1 251 0.359648 0.679924 0 -1.56305 
252 1 252 0.359634 0.719939 0 -1.58539 
253 1 253 0.359617 0.759955 0 -1.68792 
254 1 254 0.359606 0.799971 0 -1.74052 
255 1 255 0.359594 0.83999 0 -1.70951 
256 1 256 0.359587 0.880011 0 -1.66435 
257 1 257 0.359577 0.920034 0 -1.56232 
258 1 258 0.359579 0.96006 0 -1.10983 
259 1 259 0.359584 1.00008 0 -0.575213 
260 1 260 0.4 0 0 0 
261 1 261 0.399964 0.0399712 0 -0.0988464 
262 1 262 0.399926 0.0799461 0 -0.207002 
263 1 263 0.399889 0.119924 0 -0.358344 
264 1 264 0.399854 0.159906 0 -0.562881 
265 1 265 0.399824 0.199892 0 -0.815058 
266 1 266 0.3998 0.239882 0 -0.996368 
267 1 267 0.399782 0.279875 0 -1.22635 
268 1 268 0.399768 0.319869 0 -1.40571 
269 1 269 0.399755 0.359865 0 -1.65147 
270 1 270 0.399741 0.399865 0 -1.87509 
271 1 271 0.399727 0.439866 0 -2.05327 
272 1 272 0.39971 0.479872 0 -2.14559 
273 1 273 0.399692 0.519879 0 -2.10609 
274 1 274 0.399671 0.559889 0 -2.02162 
275 1 275 0.399651 0.599899 0 -1.94247 
276 1 276 0.399627 0.639911 0 -1.90183 
277 1 277 0.399604 0.679921 0 -1.99491 
278 1 278 0.399587 0.719935 0 -1.98952 
279 1 279 0.399573 0.759947 0 -2.01164 
280 1 280 0.399563 0.799962 0 -1.95134 
281 1 281 0.399547 0.839979 0 -1.85025 
282 1 282 0.399538 0.879999 0 -1.70203 
283 1 283 0.399527 0.920022 0 -1.54876 
284 1 284 0.399528 0.960045 0 -1.12516 
285 1 285 0.399531 1.00007 0 -0.608243 
286 1 286 0.44 0 0 0 
287 1 287 0.439964 0.0399731 0 0.266833 
288 1 288 0.439923 0.0799491 0 0.1844 
289 1 289 0.439884 0.119927 0 -0.095535 
290 1 290 0.439846 0.159909 0 -0.379256 
291 1 291 0.439812 0.199895 0 -0.705157 
292 1 292 0.439785 0.239884 0 -0.947312 
293 1 293 0.439765 0.279875 0 -1.22543 
294 1 294 0.439748 0.319869 0 -1.45586 
295 1 295 0.439734 0.359864 0 -1.7406 
296 1 296 0.439719 0.399862 0 -1.98114 
297 1 297 0.439703 0.439863 0 -2.19087 
298 1 298 0.439684 0.479868 0 -2.3052 
299 1 299 0.439666 0.519876 0 -2.31281 
300 1 300 0.439642 0.559886 0 -2.31175 
301 1 301 0.439617 0.599897 0 -2.22176 
302 1 302 0.439593 0.639909 0 -2.18028 
303 1 303 0.439575 0.67992 0 -2.27752 
304 1 304 0.439557 0.719931 0 -2.29069 
305 1 305 0.439539 0.759942 0 -2.28491 
306 1 306 0.439524 0.799955 0 -2.10219 
307 1 307 0.439507 0.839971 0 -1.93122 
308 1 308 0.439494 0.87999 0 -1.72683 
309 1 309 0.439478 0.920012 0 -1.54391 
310 1 310 0.439475 0.960037 0 -1.17781 
311 1 311 0.439476 1.00006 0 -0.718414 
312 1 312 0.48 0 0 0 
313 1 313 0.479961 0.0399755 0 0.528041 
314 1 314 0.479921 0.0799519 0 0.490054 
315 1 315 0.479879 0.11993 0 0.140736 
316 1 316 0.479837 0.159913 0 -0.171585 
317 1 317 0.4798 0.199897 0 -0.52989 
318 1 318 0.47977 0.239885 0 -0.819957 
319 1 319 0.479747 0.279875 0 -1.14031 
320 1 320 0.479728 0.319868 0 -1.4096 
321 1 321 0.479713 0.359862 0 -1.68517 
322 1 322 0.479696 0.39986 0 -1.89739 
323 1 323 0.479678 0.439859 0 -2.15894 
324 1 324 0.479658 0.479863 0 -2.33973 
325 1 325 0.479634 0.51987 0 -2.39756 
326 1 326 0.479609 0.559879 0 -2.45832 
327 1 327 0.479586 0.599889 0 -2.40742 
328 1 328 0.479559 0.6399 0 -2.43077 
329 1 329 0.479533 0.679909 0 -2.50463 
330 1 330 0.479511 0.71992 0 -2.47337 
331 1 331 0.479496 0.759931 0 -2.4435 
332 1 332 0.479481 0.799946 0 -2.20174 
333 1 333 0.479461 0.839962 0 -1.98238 
334 1 334 0.479445 0.879983 0 -1.72046 
335 1 335 0.479429 0.920005 0 -1.50077 
336 1 336 0.479423 0.96003 0 -1.18526 
337 1 337 0.479419 1.00006 0 -0.794671 
338 1 338 0.52 0 0 0 
339 1 339 0.519961 0.0399769 0 0.61285 
340 1 340 0.519918 0.0799543 0 0.61634 
341 1 341 0.519872 0.119934 0 0.282837 
342 1 342 0.519829 0.159916 0 0.00884541 
343 1 343 0.519789 0.199899 0 -0.293331 
344 1 344 0.519755 0.239886 0 -0.590919 
345 1 345 0.51973 0.279874 0 -0.950415 
346 1 346 0.519707 0.319866 0 -1.23263 
347 1 347 0.519691 0.359858 0 -1.49714 
348 1 348 0.519672 0.399854 0 -1.70759 
349 1 349 0.519653 0.439852 0 -2.01927 
350 1 350 0.519631 0.479854 0 -2.26833 
351 1 351 0.519608 0.519859 0 -2.41963 
352 1 352 0.519581 0.559869 0 -2.55336 
353 1 353 0.519552 0.599878 0 -2.52302 
354 1 354 0.519526 0.63989 0 -2.58475 
355 1 355 0.519506 0.679899 0 -2.64364 
356 1 356 0.519485 0.719911 0 -2.60929 
357 1 357 0.519463 0.759923 0 -2.58252 
358 1 358 0.519442 0.799939 0 -2.31913 
359 1 359 0.519421 0.839958 0 -2.0738 
360 1 360 0.519401 0.87998 0 -1.80588 
361 1 361 0.519379 0.920004 0 -1.61205 
362 1 362 0.519369 0.96003 0 -1.32687 
363 1 363 0.519362 1.00006 0 -0.973763 
364 1 364 0.56 0 0 0 
365 1 365 0.559958 0.0399774 0 0.478422 
366 1 366 0.559914 0.0799558 0 0.528217 
367 1 367 0.559868 0.119936 0 0.328344 
368 1 368 0.559822 0.159918 0 0.181835 
369 1 369 0.559779 0.1999 0 -0.00580376 
370 1 370 0.559742 0.239886 0 -0.280484 
371 1 371 0.559713 0.279873 0 -0.674419 
372 1 372 0.559688 0.319864 0 -0.977467 
373 1 373 0.55967 0.359856 0 -1.27713 
374 1 374 0.559649 0.39985 0 -1.53218 
375 1 375 0.559628 0.439847 0 -1.84953 
376 1 376 0.559603 0.479847 0 -2.14628 
377 1 377 0.559574 0.51985 0 -2.43064 
378 1 378 0.559547 0.559857 0 -2.65577 
379 1 379 0.55952 0.599865 0 -2.66034 
380 1 380 0.559491 0.639874 0 -2.74093 
381 1 381 0.559462 0.679884 0 -2.79635 
382 1 382 0.559437 0.719897 0 -2.78639 
383 1 383 0.559417 0.759911 0 -2.75557 
384 1 384 0.559396 0.799931 0 -2.51234 
385 1 385 0.559371 0.839952 0 -2.27937 
386 1 386 0.559349 0.879978 0 -2.00514 
387 1 387 0.559328 0.920004 0 -1.83398 
388 1 388 0.559314 0.960032 0 -1.53389 
389 1 389 0.559303 1.00006 0 -1.17675 
390 1 390 0.6 0 0 0 
391 1 391 0.599957 0.0399772 0 0.22341 
392 1 392 0.59991 0.0799561 0 0.305743 
393 1 393 0.599862 0.119936 0 0.259431 
394 1 394 0.599815 0.159918 0 0.262671 
395 1 395 0.599771 0.1999 0 0.193407 
396 1 396 0.599731 0.239885 0 -0.027786 
397 1 397 0.599699 0.279871 0 -0.376939 
398 1 398 0.59967 0.31986 0 -0.66847 
399 1 399 0.599649 0.359851 0 -0.998681 
400 1 400 0.599626 0.399844 0 -1.30422 
401 1 401 0.599603 0.439839 0 -1.68515 
402 1 402 0.599575 0.479838 0 -2.11145 
403 1 403 0.599546 0.519839 0 -2.51618 
404 1 404 0.599515 0.559845 0 -2.79709 
405 1 405 0.599483 0.599853 0 -2.87451 
406 1 406 0.599456 0.639865 0 -2.95903 
407 1 407 0.599434 0.679876 0 -2.9727 
408 1 408 0.599409 0.71989 0 -2.96592 
409 1 409 0.59938 0.759907 0 -2.9275 
410 1 410 0.599352 0.799929 0 -2.74107 
411 1 411 0.599326 0.839954 0 -2.54736 
412 1 412 0.5993 0.879981 0 -2.27844 
413 1 413 0.599275 0.920008 0 -2.13825 
414 1 414 0.599259 0.960037 0 -1.81079 
415 1 415 0.599245 1.00006 0 -1.43298 
416 1 416 0.64 0 0 0 
417 1 417 0.639953 0.0399765 0 -0.0973189 
418 1 418 0.639906 0.0799551 0 -0.0184453 
419 1 419 0.639859 0.119935 0 0.114853 
420 1 420 0.639811 0.159916 0 0.293994 
421 1 421 0.639766 0.199898 0 0.379511 
422 1 422 0.639723 0.239882 0 0.236849 
423 1 423 0.639686 0.279868 0 -0.0939982 
424 1 424 0.639654 0.319857 0 -0.421879 
425 1 425 0.639629 0.359847 0 -0.809658 
426 1 426 0.639603 0.39984 0 -1.1533 
427 1 427 0.639577 0.439834 0 -1.57724 
428 1 428 0.639545 0.479832 0 -2.11171 
429 1 429 0.63951 0.519832 0 -2.58795 
430 1 430 0.639477 0.559837 0 -2.91465 
431 1 431 0.639447 0.599843 0 -3.09151 
432 1 432 0.639416 0.639853 0 -3.16858 
433 1 433 0.639382 0.679866 0 -3.14731 
434 1 434 0.639353 0.719883 0 -3.14924 
435 1 435 0.639328 0.759903 0 -3.07851 
436 1 436 0.639299 0.799928 0 -2.92712 
437 1 437 0.63927 0.839955 0 -2.78647 
438 1 438 0.639242 0.879985 0 -2.56225 
439 1 439 0.639219 0.920013 0 -2.47699 
440 1 440 0.639201 0.960043 0 -2.15437 
441 1 441 0.639185 1.00007 0 -1.77697 
442 1 442 0.68 0 0 0 
443 1 443 0.679952 0.0399755 0 -0.364462 
444 1 444 0.679902 0.0799542 0 -0.308971 
445 1 445 0.679854 0.119934 0 -0.0199633 
446 1 446 0.679807 0.159914 0 0.269128 
447 1 447 0.679761 0.199895 0 0.43017 
448 1 448 0.679716 0.239878 0 0.369582 
449 1 449 0.679676 0.279863 0 0.107945 
450 1 450 0.679639 0.319851 0 -0.196862 
451 1 451 0.67961 0.35984 0 -0.606876 
452 1 452 0.679581 0.399832 0 -1.00079 
453 1 453 0.67955 0.439826 0 -1.44383 
454 1 454 0.679516 0.479823 0 -2.03817 
455 1 455 0.679481 0.519823 0 -2.59518 
456 1 456 0.679443 0.559829 0 -2.99191 
457 1 457 0.679406 0.599838 0 -3.2451 
458 1 458 0.679376 0.639852 0 -3.28792 
459 1 459 0.679349 0.679868 0 -3.23261 
460 1 460 0.679319 0.719888 0 -3.24215 
461 1 461 0.679284 0.75991 0 -3.15705 
462 1 462 0.679249 0.799936 0 -3.0427 
463 1 463 0.679219 0.839964 0 -2.96852 
464 1 464 0.67919 0.879993 0 -2.81784 
465 1 465 0.679163 0.920021 0 -2.77885 
466 1 466 0.679144 0.960051 0 -2.47319 
467 1 467 0.679128 1.00008 0 -2.1145 
468 1 468 0.72 0 0 0 
469 1 469 0.719947 0.0399752 0 -0.443778 
470 1 470 0.719898 0.0799534 0 -0.437773 
471 1 471 0.719852 0.119932 0 -0.136191 
472 1 472 0.719803 0.159913 0 0.201565 
473 1 473 0.719758 0.199893 0 0.443652 
474 1 474 0.71971 0.239875 0 0.485176 
475 1 475 0.719666 0.279859 0 0.309422 
476 1 476 0.719626 0.319846 0 0.0197001 
477 1 477 0.719591 0.359835 0 -0.393586 
478 1 478 0.719557 0.399827 0 -0.833321 
479 1 479 0.719523 0.439821 0 -1.30338 
480 1 480 0.719484 0.479819 0 -1.89389 
481 1 481 0.719442 0.51982 0 -2.45041 
482 1 482 0.719403 0.559826 0 -2.85644 
483 1 483 0.719368 0.599834 0 -3.15553 
484 1 484 0.719332 0.639848 0 -3.22641 
485 1 485 0.719292 0.679866 0 -3.17986 
486 1 486 0.719256 0.719889 0 -3.14501 
487 1 487 0.719224 0.759915 0 -3.03223 
488 1 488 0.71919 0.799943 0 -2.97243 
489 1 489 0.719157 0.839971 0 -2.98628 
490 1 490 0.719128 0.880001 0 -2.90755 
491 1 491 0.719105 0.920028 0 -2.90763 
492 1 492 0.719085 0.960057 0 -2.71937 
493 1 493 0.719067 1.00008 0 -2.46124 
494 1 494 0.76 0 0 0 
495 1 495 0.759946 0.0399754 0 -0.422598 
496 1 496 0.759894 0.0799532 0 -0.434682 
497 1 497 0.759847 0.119932 0 -0.132341 
498 1 498 0.759799 0.159911 0 0.216927 
499 1 499 0.759753 0.199892 0 0.474782 
500 1 500 0.759703 0.239873 0 0.541678 
501 1 501 0.759656 0.279856 0 0.418662 
502 1 502 0.759612 0.319842 0 0.153544 
503 1 503 0.759572 0.359829 0 -0.241425 
504 1 504 0.759534 0.399821 0 -0.685741 
505 1 505 0.759496 0.439815 0 -1.13982 
506 1 506 0.759454 0.479813 0 -1.67576 
507 1 507 0.759412 0.519815 0 -2.18388 
508 1 508 0.759368 0.559822 0 -2.58172 
509 1 509 0.759324 0.599835 0 -2.91784 
510 1 510 0.759288 0.639853 0 -3.02508 
511 1 511 0.759255 0.679875 0 -2.9852 
512 1 512 0.759218 0.7199 0 -2.93649 
513 1 513 0.759176 0.759928 0 -2.88859 
514 1 514 0.759137 0.799956 0 -2.88536 
515 1 515 0.759104 0.839983 0 -2.95762 
516 1 516 0.759075 0.880011 0 -2.99599 
517 1 517 0.759046 0.920038 0 -3.05784 
518 1 518 0.759025 0.960066 0 -2.95869 
519 1 519 0.75901 1.00009 0 -2.78068 
520 1 520 0.8 0 0 0 
521 1 521 0.799944 0.0399764 0 -0.209248 
522 1 522 0.799892 0.0799542 0 -0.229005 
523 1 523 0.799844 0.119933 0 -0.0371194 
524 1 524 0.799793 0.159913 0 0.219765 
525 1 525 0.799746 0.199893 0 0.445516 
526 1 526 0.799696 0.239874 0 0.568513 
527 1 527 0.799645 0.279856 0 0.546029 
528 1 528 0.799597 0.319841 0 0.308161 
529 1 529 0.799553 0.359829 0 -0.0827224 
530 1 530 0.79951 0.399821 0 -0.536901 
531 1 531 0.799468 0.439815 0 -0.95442 
532 1 532 0.799421 0.479814 0 -1.40089 
533 1 533 0.799373 0.519816 0 -1.85314 
534 1 534 0.799327 0.559823 0 -2.22259 
535 1 535 0.799286 0.599834 0 -2.53638 
536 1 536 0.799241 0.639851 0 -2.6796 
537 1 537 0.799192 0.679874 0 -2.69656 
538 1 538 0.799149 0.719903 0 -2.66144 
539 1 539 0.799112 0.759932 0 -2.69011 
540 1 540 0.799076 0.799962 0 -2.75543 
541 1 541 0.799039 0.83999 0 -2.9155 
542 1 542 0.799011 0.880019 0 -3.06248 
543 1 543 0.798986 0.920046 0 -3.13209 
544 1 544 0.798965 0.960074 0 -3.1114 
545 1 545 0.798948 1.0001 0 -3.02771 
546 1 546 0.84 0 0 0 
547 1 547 0.839945 0.0399775 0 0.0243194 
548 1 548 0.839889 0.0799555 0 0.0387661 
549 1 549 0.839838 0.119934 0 0.150078 
550 1 550 0.839788 0.159914 0 0.339252 
551 1 551 0.839738 0.199895 0 0.538282 
552 1 552 0.839685 0.239876 0 0.687748 
553 1 553 0.839633 0.279859 0 0.718213 
554 1 554 0.839582 0.319843 0 0.465076 
555 1 555 0.839534 0.35983 0 0.0594752 
556 1 556 0.839488 0.399821 0 -0.437834 
557 1 557 0.839441 0.439815 0 -0.883735 
558 1 558 0.839392 0.479813 0 -1.24284 
559 1 559 0.839344 0.519815 0 -1.56173 
560 1 560 0.839292 0.559823 0 -1.85573 
561 1 561 0.83924 0.599836 0 -2.16441 
562 1 562 0.839192 0.639857 0 -2.3832 
563 1 563 0.839152 0.679883 0 -2.47419 
564 1 564 0.839108 0.719912 0 -2.46526 
565 1 565 0.83906 0.759942 0 -2.59494 
566 1 566 0.839019 0.799973 0 -2.74084 
567 1 567 0.838985 0.840001 0 -2.97518 
568 1 568 0.838955 0.880029 0 -3.20126 
569 1 569 0.838925 0.920056 0 -3.25618 
570 1 570 0.838904 0.960084 0 -3.2707 
571 1 571 0.83889 1.00011 0 -3.24726 
572 1 572 0.88 0 0 0 
573 1 573 0.879943 0.0399788 0 0.232046 
574 1 574 0.879887 0.0799568 0 0.306739 
575 1 575 0.879833 0.119936 0 0.366981 
576 1 576 0.879779 0.159916 0 0.492679 
577 1 577 0.879728 0.199898 0 0.651798 
578 1 578 0.879673 0.23988 0 0.795682 
579 1 579 0.87962 0.279863 0 0.866239 
580 1 580 0.879566 0.319848 0 0.629986 
581 1 581 0.879514 0.359835 0 0.229698 
582 1 582 0.879463 0.399827 0 -0.29981 
583 1 583 0.879413 0.439821 0 -0.761877 
584 1 584 0.87936 0.47982 0 -1.04869 
585 1 585 0.879305 0.519822 0 -1.28328 
586 1 586 0.87925 0.559828 0 -1.54771 
587 1 587 0.8792 0.599838 0 -1.83179 
588 1 588 0.879142 0.639856 0 -2.10226 
589 1 589 0.879084 0.67988 0 -2.30245 
590 1 590 0.879031 0.719911 0 -2.35644 
591 1 591 0.87899 0.759942 0 -2.59461 
592 1 592 0.878953 0.799975 0 -2.85634 
593 1 593 0.878915 0.840005 0 -3.1719 
594 1 594 0.878885 0.880035 0 -3.43856 
595 1 595 0.878861 0.920063 0 -3.45349 
596 1 596 0.87884 0.960092 0 -3.40161 
597 1 597 0.878825 1.00012 0 -3.35167 
598 1 598 0.92 0 0 0 
599 1 599 0.919944 0.0399789 0 0.355161 
600 1 600 0.919884 0.0799572 0 0.483198 
601 1 601 0.919827 0.119937 0 0.499112 
602 1 602 0.919771 0.159918 0 0.590359 
603 1 603 0.919717 0.1999 0 0.791234 
604 1 604 0.919661 0.239883 0 1.02026 
605 1 605 0.919606 0.279867 0 1.16481 
606 1 606 0.91955 0.319852 0 0.934506 
607 1 607 0.919494 0.35984 0 0.520984 
608 1 608 0.91944 0.399831 0 -0.0582198 
609 1 609 0.919385 0.439826 0 -0.582866 
610 1 610 0.919329 0.479824 0 -0.882788 
611 1 611 0.919274 0.519826 0 -1.0928 
612 1 612 0.919213 0.559832 0 -1.35096 
613 1 613 0.91915 0.599845 0 -1.62335 
614 1 614 0.91909 0.639865 0 -1.92007 
615 1 615 0.919041 0.67989 0 -2.21862 
616 1 616 0.918988 0.719919 0 -2.3875 
617 1 617 0.918935 0.75995 0 -2.73095 
618 1 618 0.918892 0.799982 0 -3.0545 
619 1 619 0.918857 0.840013 0 -3.38028 
620 1 620 0.918825 0.880042 0 -3.63955 
621 1 621 0.918796 0.920073 0 -3.64794 
622 1 622 0.918777 0.960102 0 -3.51129 
623 1 623 0.918765 1.00013 0 -3.38843 
624 1 624 0.96 0 0 0 
625 1 625 0.959942 0.0399793 0 0.306278 
626 1 626 0.959882 0.0799582 0 0.49367 
627 1 627 0.959822 0.119938 0 0.621999 
628 1 628 0.959763 0.159919 0 0.787104 
629 1 629 0.959706 0.199901 0 0.991546 
630 1 630 0.959649 0.239886 0 1.23694 
631 1 631 0.959592 0.279871 0 1.46193 
632 1 632 0.959534 0.319858 0 1.29124 
633 1 633 0.959474 0.359847 0 0.868683 
634 1 634 0.959414 0.39984 0 0.221315 
635 1 635 0.959355 0.439835 0 -0.363122 
636 1 636 0.959295 0.479835 0 -0.692544 
637 1 637 0.959232 0.519836 0 -0.898419 
638 1 638 0.959168 0.559842 0 -1.17068 
639 1 639 0.959107 0.599852 0 -1.4827 
640 1 640 0.959037 0.639868 0 -1.85714 
641 1 641 0.958968 0.67989 0 -2.27991 
642 1 642 0.958908 0.719919 0 -2.53588 
643 1 643 0.958863 0.759949 0 -2.89493 
644 1 644 0.958823 0.799982 0 -3.27317 
645 1 645 0.958782 0.840014 0 -3.6238 
646 1 646 0.95875 0.880046 0 -3.79754 
647 1 647 0.958726 0.920078 0 -3.76875 
648 1 648 0.958709 0.96011 0 -3.59163 
649 1 649 0.958696 1.00014 0 -3.4222 
650 1 650 1 0 0 0 
651 1 651 0.999943 0.0399785 0 0.253634 
652 1 652 0.999879 0.0799574 0 0.461527 
653 1 653 0.999815 0.119938 0 0.636277 
654 1 654 0.999755 0.159919 0 0.84835 
655 1 655 0.999695 0.199902 0 1.11594 
656 1 656 0.999637 0.239887 0 1.43935 
657 1 657 0.999578 0.279873 0 1.72445 
658 1 658 0.999517 0.319861 0 1.61222 
659 1 659 0.999454 0.359851 0 1.2432 
660 1 660 0.999391 0.399845 0 0.591479 
661 1 661 0.999325 0.439841 0 -0.0635074 
662 1 662 0.99926 0.479841 0 -0.506956 
663 1 663 0.999198 0.519843 0 -0.777285 
664 1 664 0.999127 0.55985 0 -1.10115 
665 1 665 0.999053 0.599862 0 -1.46447 
666 1 666 0.998983 0.639882 0 -1.86312 
667 1 667 0.998925 0.679904 0 -2.34208 
668 1 668 0.998866 0.71993 0 -2.68992 
669 1 669 0.998808 0.759958 0 -3.08736 
670 1 670 0.99876 0.799989 0 -3.50644 
671 1 671 0.998722 0.84002 0 -3.82459 
672 1 672 0.998687 0.880052 0 -3.86767 
673 1 673 0.998655 0.920086 0 -3.82829 
674 1 674 0.998641 0.960119 0 -3.6394 
675 1 675 0.998632 1.00015 0 -3.4242 
676 1 676 1.04 0 0 0 
677 1 677 1.03994 0.0399786 0 0.109078 
678 1 678 1.03988 0.0799576 0 0.358928 
679 1 679 1.03981 0.119938 0 0.646825 
680 1 680 1.03975 0.159919 0 0.920482 
681 1 681 1.03968 0.199902 0 1.22545 
682 1 682 1.03962 0.239888 0 1.59805 
683 1 683 1.03956 0.279876 0 1.91753 
684 1 684 1.0395 0.319866 0 1.8593 
685 1 685 1.03943 0.359858 0 1.5372 
686 1 686 1.03936 0.399853 0 0.892677 
687 1 687 1.03929 0.43985 0 0.204913 
688 1 688 1.03922 0.479851 0 -0.346192 
689 1 689 1.03915 0.519855 0 -0.70778 
690 1 690 1.03908 0.559863 0 -1.10453 
691 1 691 1.03901 0.599872 0 -1.52855 
692 1 692 1.03893 0.639887 0 -1.96681 
693 1 693 1.03885 0.679906 0 -2.53074 
694 1 694 1.03878 0.719932 0 -2.97704 
695 1 695 1.03873 0.759959 0 -3.34172 
696 1 696 1.03869 0.799989 0 -3.70221 
697 1 697 1.03864 0.840022 0 -3.94705 
698 1 698 1.03861 0.880056 0 -3.88461 
699 1 699 1.03858 0.92009 0 -3.87781 
700 1 700 1.03857 0.960125 0 -3.71955 
701 1 701 1.03856 1.00016 0 -3.48257 
702 1 702 1.08 0 0 0 
703 1 703 1.07994 0.0399775 0 0.031971 
704 1 704 1.07987 0.0799569 0 0.296442 
705 1 705 1.07981 0.119937 0 0.638601 
706 1 706 1.07974 0.159918 0 0.927169 
707 1 707 1.07967 0.199901 0 1.2381 
708 1 708 1.07961 0.239888 0 1.61542 
709 1 709 1.07955 0.279877 0 1.91167 
710 1 710 1.07948 0.319868 0 1.88925 
711 1 711 1.07941 0.359862 0 1.59918 
712 1 712 1.07934 0.399857 0 0.98152 
713 1 713 1.07926 0.439856 0 0.34653 
714 1 714 1.07918 0.479857 0 -0.255166 
715 1 715 1.07911 0.519862 0 -0.701599 
716 1 716 1.07903 0.559871 0 -1.15261 
717 1 717 1.07895 0.599884 0 -1.61421 
718 1 718 1.07887 0.639903 0 -2.04457 
719 1 719 1.07881 0.679923 0 -2.60015 
720 1 720 1.07874 0.719946 0 -3.12489 
721 1 721 1.07868 0.759971 0 -3.53282 
722 1 722 1.07862 0.8 0 -3.89858 
723 1 723 1.07858 0.84003 0 -4.10952 
724 1 724 1.07854 0.880064 0 -3.93978 
725 1 725 1.07851 0.920098 0 -3.91155 
726 1 726 1.07849 0.960134 0 -3.84464 
727 1 727 1.07848 1.00017 0 -3.67554 
728 1 728 1.12 0 0 0 
729 1 729 1.11993 0.0399779 0 0.063715 
730 1 730 1.11987 0.0799572 0 0.304058 
731 1 731 1.1198 0.119937 0 0.610282 
732 1 732 1.11973 0.159918 0 0.873968 
733 1 733 1.11966 0.199902 0 1.16964 
734 1 734 1.1196 0.239888 0 1.49682 
735 1 735 1.11953 0.279879 0 1.69997 
736 1 736 1.11946 0.319872 0 1.71397 
737 1 737 1.11938 0.359867 0 1.53145 
738 1 738 1.1193 0.399865 0 0.975239 
739 1 739 1.11922 0.439865 0 0.369192 
740 1 740 1.11914 0.479868 0 -0.244431 
741 1 741 1.11906 0.519874 0 -0.692786 
742 1 742 1.11898 0.559884 0 -1.12645 
743 1 743 1.1189 0.599895 0 -1.58342 
744 1 744 1.11882 0.639909 0 -2.02679 
745 1 745 1.11873 0.679927 0 -2.60702 
746 1 746 1.11866 0.71995 0 -3.21124 
747 1 747 1.1186 0.759974 0 -3.66293 
748 1 748 1.11855 0.800003 0 -4.05405 
749 1 749 1.1185 0.840035 0 -4.29409 
750 1 750 1.11846 0.88007 0 -4.08715 
751 1 751 1.11843 0.920104 0 -4.01966 
752 1 752 1.11841 0.960142 0 -4.0485 
753 1 753 1.1184 1.00018 0 -3.98836 
754 1 754 1.16 0 0 0 
755 1 755 1.15993 0.0399776 0 0.0432383 
756 1 756 1.15986 0.0799571 0 0.253453 
757 1 757 1.15979 0.119937 0 0.557557 
758 1 758 1.15972 0.159918 0 0.802191 
759 1 759 1.15965 0.199902 0 1.02948 
760 1 760 1.15958 0.239889 0 1.30416 
761 1 761 1.15951 0.27988 0 1.44478 
762 1 762 1.15943 0.319873 0 1.40227 
763 1 763 1.15935 0.35987 0 1.21983 
764 1 764 1.15927 0.399868 0 0.770918 
765 1 765 1.15919 0.439869 0 0.325984 
766 1 766 1.1591 0.479873 0 -0.206737 
767 1 767 1.15902 0.51988 0 -0.663084 
768 1 768 1.15893 0.559891 0 -1.07499 
769 1 769 1.15884 0.599906 0 -1.46677 
770 1 770 1.15876 0.639925 0 -1.88128 
771 1 771 1.15869 0.679944 0 -2.44996 
772 1 772 1.15862 0.719966 0 -3.13734 
773 1 773 1.15855 0.75999 0 -3.71666 
774 1 774 1.15848 0.800018 0 -4.16996 
775 1 775 1.15844 0.840047 0 -4.4668 
776 1 776 1.15839 0.88008 0 -4.38188 
777 1 777 1.15835 0.920114 0 -4.35568 
778 1 778 1.15833 0.960153 0 -4.39802 