ITEM: TIMESTEP
0
ITEM: NUMBER OF ATOMS
7127
ITEM: BOX BOUNDS sm sm sm
0 4
0 2
0 0
ITEM: ATOMS id type tag x y z vx 
0 1 0 0 0 0 0 
1 1 1 0 0.04 0 0 
2 1 2 0 0.08 0 0 
3 1 3 0 0.12 0 0 
4 1 4 0 0.16 0 0 
5 1 5 0 0.2 0 0 
6 1 6 0 0.24 0 0 
7 1 7 0 0.28 0 0 
8 1 8 0 0.32 0 0 
9 1 9 0 0.36 0 0 
10 1 10 0 0.4 0 0 
11 1 11 0 0.44 0 0 
12 1 12 0 0.48 0 0 
13 1 13 0 0.52 0 0 
14 1 14 0 0.56 0 0 
15 1 15 0 0.6 0 0 
16 1 16 0 0.64 0 0 
17 1 17 0 0.68 0 0 
18 1 18 0 0.72 0 0 
19 1 19 0 0.76 0 0 
20 1 20 0 0.8 0 0 
21 1 21 0 0.84 0 0 
22 1 22 0 0.88 0 0 
23 1 23 0 0.92 0 0 
24 1 24 0 0.96 0 0 
25 1 25 0 1 0 0 
26 1 26 0.04 0 0 0 
27 1 27 0.0399972 0.0399985 0 0.0458079 
28 1 28 0.0399961 0.0799985 0 -0.0281562 
29 1 29 0.0399942 0.119998 0 -0.12748 
30 1 30 0.0399916 0.159998 0 -0.0914129 
31 1 31 0.0399917 0.199996 0 -0.0694065 
32 1 32 0.039991 0.239995 0 -0.0928277 
33 1 33 0.0399918 0.279994 0 -0.103843 
34 1 34 0.039991 0.319994 0 -0.1449 
35 1 35 0.0399939 0.359994 0 -0.084504 
36 1 36 0.0399941 0.399995 0 -0.0409249 
37 1 37 0.0399965 0.439996 0 -0.0615434 
38 1 38 0.0399955 0.479998 0 -0.0279341 
39 1 39 0.0399949 0.52 0 -0.0509766 
40 1 40 0.0399921 0.560003 0 -0.121835 
41 1 41 0.0399911 0.600005 0 -0.187658 
42 1 42 0.0399881 0.640008 0 -0.234895 
43 1 43 0.0399888 0.680009 0 -0.191301 
44 1 44 0.0399858 0.720012 0 -0.0948728 
45 1 45 0.0399864 0.760013 0 0.0557106 
46 1 46 0.0399824 0.800019 0 0.170819 
47 1 47 0.0399822 0.840024 0 0.245194 
48 1 48 0.0399778 0.880034 0 0.382408 
49 1 49 0.0399689 0.920042 0 0.335287 
50 1 50 0.0399622 0.960052 0 0.296933 
51 1 51 0.039909 1.0001 0 0.36531 
52 1 52 0.08 0 0 0 
53 1 53 0.0799956 0.0399972 0 -0.0374638 
54 1 54 0.0799918 0.0799939 0 -0.110769 
55 1 55 0.0799882 0.119992 0 -0.140019 
56 1 56 0.0799853 0.159991 0 -0.0753285 
57 1 57 0.079985 0.199989 0 -0.0939331 
58 1 58 0.0799832 0.239988 0 -0.131594 
59 1 59 0.0799837 0.279988 0 -0.122215 
60 1 60 0.0799836 0.319989 0 -0.165808 
61 1 61 0.0799871 0.359992 0 -0.124294 
62 1 62 0.079989 0.399993 0 -0.11227 
63 1 63 0.079991 0.439997 0 -0.143498 
64 1 64 0.079991 0.48 0 -0.103332 
65 1 65 0.0799866 0.520005 0 -0.12902 
66 1 66 0.0799846 0.56001 0 -0.152083 
67 1 67 0.0799786 0.600016 0 -0.178832 
68 1 68 0.0799773 0.640022 0 -0.255257 
69 1 69 0.0799732 0.680028 0 -0.199558 
70 1 70 0.0799716 0.720032 0 -0.0645191 
71 1 71 0.0799671 0.760041 0 0.192125 
72 1 72 0.0799623 0.800047 0 0.379703 
73 1 73 0.0799564 0.84006 0 0.448845 
74 1 74 0.0799474 0.880072 0 0.539788 
75 1 75 0.0799356 0.920089 0 0.446998 
76 1 76 0.0799036 0.960117 0 0.529777 
77 1 77 0.0798628 1.00013 0 0.699796 
78 1 78 0.12 0 0 0 
79 1 79 0.119995 0.0399948 0 -0.0991749 
80 1 80 0.119989 0.0799894 0 -0.124314 
81 1 81 0.119984 0.119986 0 -0.133026 
82 1 82 0.11998 0.159983 0 -0.122094 
83 1 83 0.119979 0.199981 0 -0.125281 
84 1 84 0.119976 0.239981 0 -0.121163 
85 1 85 0.119976 0.279983 0 -0.0916608 
86 1 86 0.119976 0.319986 0 -0.118136 
87 1 87 0.119981 0.359991 0 -0.109025 
88 1 88 0.119983 0.399996 0 -0.123117 
89 1 89 0.119986 0.440001 0 -0.148889 
90 1 90 0.119984 0.480008 0 -0.1022 
91 1 91 0.119979 0.520015 0 -0.0927441 
92 1 92 0.119973 0.560025 0 -0.0585995 
93 1 93 0.119967 0.600034 0 -0.0631331 
94 1 94 0.119962 0.640045 0 -0.18146 
95 1 95 0.119961 0.680054 0 -0.146807 
96 1 96 0.119955 0.720066 0 -0.0179355 
97 1 97 0.11995 0.760075 0 0.295111 
98 1 98 0.119938 0.800088 0 0.591752 
99 1 99 0.11993 0.8401 0 0.728532 
100 1 100 0.119915 0.880117 0 0.76689 
101 1 101 0.119893 0.920137 0 0.577767 
102 1 102 0.119863 0.960155 0 0.726053 
103 1 103 0.119819 1.00018 0 0.968338 
104 1 104 0.16 0 0 0 
105 1 105 0.159995 0.0399932 0 -0.0239517 
106 1 106 0.159988 0.0799872 0 -0.052473 
107 1 107 0.159982 0.119982 0 -0.142178 
108 1 108 0.159975 0.159977 0 -0.14962 
109 1 109 0.159973 0.199975 0 -0.113533 
110 1 110 0.159968 0.239976 0 -0.128057 
111 1 111 0.159969 0.279979 0 -0.11747 
112 1 112 0.159968 0.319984 0 -0.103129 
113 1 113 0.159973 0.359992 0 -0.0736803 
114 1 114 0.159975 0.400001 0 -0.0527028 
115 1 115 0.159978 0.440011 0 -0.0629325 
116 1 116 0.159975 0.480022 0 -0.0321029 
117 1 117 0.159968 0.520034 0 0.0138337 
118 1 118 0.15996 0.560047 0 0.0589524 
119 1 119 0.159952 0.600061 0 0.0282515 
120 1 120 0.159946 0.640073 0 -0.086972 
121 1 121 0.15994 0.680088 0 -0.0614022 
122 1 122 0.159932 0.7201 0 0.0576875 
123 1 123 0.159925 0.760116 0 0.375973 
124 1 124 0.159914 0.800128 0 0.717205 
125 1 125 0.159901 0.840145 0 0.902066 
126 1 126 0.15988 0.880162 0 0.937226 
127 1 127 0.159855 0.920181 0 0.711097 
128 1 128 0.159822 0.960202 0 0.804122 
129 1 129 0.159777 1.00022 0 1.01796 
130 1 130 0.2 0 0 0 
131 1 131 0.199997 0.0399934 0 0.0928745 
132 1 132 0.199988 0.0799875 0 0.0558271 
133 1 133 0.199981 0.119981 0 -0.0838121 
134 1 134 0.199973 0.159976 0 -0.127463 
135 1 135 0.199969 0.199974 0 -0.142615 
136 1 136 0.199963 0.239975 0 -0.211976 
137 1 137 0.199962 0.279979 0 -0.196845 
138 1 138 0.19996 0.319986 0 -0.127515 
139 1 139 0.199964 0.359996 0 -0.103061 
140 1 140 0.199966 0.400009 0 -0.0557588 
141 1 141 0.199966 0.440024 0 0.00410369 
142 1 142 0.199961 0.480039 0 0.0353167 
143 1 143 0.199954 0.520057 0 0.107821 
144 1 144 0.199943 0.560073 0 0.148246 
145 1 145 0.199933 0.600091 0 0.0809351 
146 1 146 0.199926 0.640108 0 -0.0226214 
147 1 147 0.199922 0.680125 0 -0.00558223 
148 1 148 0.199913 0.720142 0 0.139254 
149 1 149 0.199904 0.760157 0 0.48469 
150 1 150 0.199888 0.800174 0 0.865359 
151 1 151 0.199871 0.84019 0 1.04996 
152 1 152 0.199849 0.880208 0 1.04491 
153 1 153 0.199821 0.920227 0 0.859116 
154 1 154 0.199786 0.960245 0 0.874539 
155 1 155 0.199745 1.00026 0 0.977526 
156 1 156 0.24 0 0 0 
157 1 157 0.239997 0.0399942 0 0.223166 
158 1 158 0.239989 0.0799881 0 0.186996 
159 1 159 0.239982 0.119982 0 -0.0161868 
160 1 160 0.239971 0.159979 0 -0.162955 
161 1 161 0.239965 0.199977 0 -0.239867 
162 1 162 0.239957 0.23998 0 -0.325609 
163 1 163 0.239954 0.279985 0 -0.316767 
164 1 164 0.239951 0.319995 0 -0.247343 
165 1 165 0.239952 0.360007 0 -0.200268 
166 1 166 0.23995 0.400023 0 -0.0998245 
167 1 167 0.239949 0.440042 0 0.0260948 
168 1 168 0.239942 0.480062 0 0.0634791 
169 1 169 0.239934 0.520084 0 0.14348 
170 1 170 0.239922 0.560103 0 0.151501 
171 1 171 0.239914 0.600123 0 0.0609773 
172 1 172 0.239903 0.640142 0 -0.0190552 
173 1 173 0.239895 0.680161 0 -0.0215231 
174 1 174 0.239884 0.720179 0 0.191983 
175 1 175 0.239875 0.760198 0 0.56193 
176 1 176 0.23986 0.800216 0 0.9762 
177 1 177 0.23984 0.840235 0 1.20889 
178 1 178 0.239815 0.880253 0 1.16841 
179 1 179 0.239787 0.920272 0 1.00035 
180 1 180 0.239753 0.960288 0 0.881002 
181 1 181 0.239711 1.0003 0 0.824402 
182 1 182 0.28 0 0 0 
183 1 183 0.279999 0.0399954 0 0.368528 
184 1 184 0.27999 0.0799909 0 0.314326 
185 1 185 0.279982 0.119987 0 0.0566726 
186 1 186 0.27997 0.159985 0 -0.166148 
187 1 187 0.279962 0.199986 0 -0.298894 
188 1 188 0.279951 0.239989 0 -0.419525 
189 1 189 0.279945 0.279997 0 -0.469777 
190 1 190 0.27994 0.320008 0 -0.441601 
191 1 191 0.279937 0.360022 0 -0.30209 
192 1 192 0.279932 0.400041 0 -0.0991851 
193 1 193 0.279928 0.440063 0 0.057975 
194 1 194 0.27992 0.480085 0 0.0890098 
195 1 195 0.279911 0.52011 0 0.148663 
196 1 196 0.279898 0.560132 0 0.0781448 
197 1 197 0.279888 0.600154 0 -0.0563982 
198 1 198 0.279877 0.640175 0 -0.0818339 
199 1 199 0.279872 0.680197 0 -0.0540764 
200 1 200 0.279863 0.720218 0 0.269995 
201 1 201 0.27985 0.76024 0 0.668051 
202 1 202 0.279833 0.800259 0 1.03469 
203 1 203 0.279813 0.84028 0 1.2902 
204 1 204 0.279787 0.880298 0 1.29472 
205 1 205 0.279759 0.920315 0 1.17469 
206 1 206 0.279723 0.960332 0 0.900916 
207 1 207 0.279685 1.00035 0 0.682686 
208 1 208 0.32 0 0 0 
209 1 209 0.319998 0.0399974 0 0.414176 
210 1 210 0.31999 0.0799951 0 0.359431 
211 1 211 0.31998 0.119994 0 0.127473 
212 1 212 0.319966 0.159995 0 -0.11264 
213 1 213 0.319956 0.199998 0 -0.306355 
214 1 214 0.319944 0.240005 0 -0.503267 
215 1 215 0.319934 0.280014 0 -0.589189 
216 1 216 0.319926 0.320027 0 -0.524166 
217 1 217 0.319919 0.360043 0 -0.3003 
218 1 218 0.31991 0.400063 0 -0.0690426 
219 1 219 0.319903 0.440087 0 0.0936326 
220 1 220 0.319892 0.480112 0 0.121406 
221 1 221 0.319884 0.520137 0 0.0978645 
222 1 222 0.319871 0.56016 0 -0.0512818 
223 1 223 0.319864 0.600183 0 -0.177205 
224 1 224 0.319851 0.640204 0 -0.154761 
225 1 225 0.319841 0.680227 0 -0.0823355 
226 1 226 0.319829 0.72025 0 0.323219 
227 1 227 0.319817 0.760274 0 0.754941 
228 1 228 0.319801 0.800297 0 1.11997 
229 1 229 0.31978 0.840319 0 1.35702 
230 1 230 0.319755 0.880339 0 1.38272 
231 1 231 0.319727 0.920358 0 1.29365 
232 1 232 0.319694 0.960374 0 0.857449 
233 1 233 0.319658 1.00039 0 0.49943 
234 1 234 0.36 0 0 0 
235 1 235 0.359998 0.0399997 0 0.374756 
236 1 236 0.359989 0.0800007 0 0.350753 
237 1 237 0.359977 0.120003 0 0.182798 
238 1 238 0.359962 0.160007 0 -0.0464899 
239 1 239 0.359948 0.200014 0 -0.241571 
240 1 240 0.359933 0.240023 0 -0.432734 
241 1 241 0.359921 0.280034 0 -0.505047 
242 1 242 0.359909 0.320048 0 -0.440671 
243 1 243 0.359899 0.360066 0 -0.228952 
244 1 244 0.359887 0.400087 0 0.00229331 
245 1 245 0.359877 0.440111 0 0.191498 
246 1 246 0.359866 0.480136 0 0.199223 
247 1 247 0.359858 0.520162 0 0.0466197 
248 1 248 0.359845 0.560186 0 -0.197845 
249 1 249 0.359836 0.60021 0 -0.310467 
250 1 250 0.359823 0.640233 0 -0.252478 
251 1 251 0.359817 0.680258 0 -0.101876 
252 1 252 0.359806 0.720282 0 0.376744 
253 1 253 0.359791 0.760309 0 0.784555 
254 1 254 0.359775 0.800333 0 1.17072 
255 1 255 0.359753 0.840358 0 1.42997 
256 1 256 0.359729 0.880379 0 1.44543 
257 1 257 0.359701 0.920398 0 1.32585 
258 1 258 0.359669 0.960414 0 0.797791 
259 1 259 0.359637 1.00043 0 0.395142 
260 1 260 0.4 0 0 0 
261 1 261 0.399995 0.0400023 0 0.189356 
262 1 262 0.399984 0.080006 0 0.224169 
263 1 263 0.399971 0.120011 0 0.22644 
264 1 264 0.399954 0.160019 0 0.090248 
265 1 265 0.399938 0.200028 0 -0.0415605 
266 1 266 0.399921 0.24004 0 -0.199222 
267 1 267 0.399906 0.280054 0 -0.286705 
268 1 268 0.399892 0.32007 0 -0.24115 
269 1 269 0.399878 0.360091 0 -0.0127396 
270 1 270 0.399862 0.400112 0 0.210959 
271 1 271 0.399849 0.440138 0 0.335674 
272 1 272 0.399836 0.480163 0 0.219727 
273 1 273 0.399828 0.520189 0 -0.0381274 
274 1 274 0.399816 0.560213 0 -0.311462 
275 1 275 0.399811 0.600236 0 -0.42472 
276 1 276 0.399796 0.640258 0 -0.292824 
277 1 277 0.399783 0.680283 0 -0.0243592 
278 1 278 0.399768 0.72031 0 0.488114 
279 1 279 0.399755 0.760338 0 0.861194 
280 1 280 0.39974 0.800364 0 1.18965 
281 1 281 0.39972 0.840391 0 1.37532 
282 1 282 0.399697 0.880413 0 1.36552 
283 1 283 0.399671 0.920433 0 1.19725 
284 1 284 0.399642 0.960449 0 0.672855 
285 1 285 0.399611 1.00046 0 0.330173 
286 1 286 0.44 0 0 0 
287 1 287 0.439992 0.0400037 0 -0.0386316 
288 1 288 0.439979 0.0800099 0 0.0527791 
289 1 289 0.439962 0.120019 0 0.220741 
290 1 290 0.439945 0.160029 0 0.209823 
291 1 291 0.439925 0.200041 0 0.20524 
292 1 292 0.439907 0.240055 0 0.0961515 
293 1 293 0.43989 0.280072 0 0.0198844 
294 1 294 0.439871 0.320091 0 0.0640365 
295 1 295 0.439855 0.360112 0 0.269774 
296 1 296 0.439838 0.400136 0 0.423462 
297 1 297 0.439824 0.440161 0 0.469659 
298 1 298 0.439809 0.480187 0 0.281606 
299 1 299 0.439802 0.520212 0 -0.0685633 
300 1 300 0.43979 0.560237 0 -0.351912 
301 1 301 0.439781 0.600262 0 -0.473642 
302 1 302 0.439768 0.640287 0 -0.318589 
303 1 303 0.439759 0.680314 0 0.0198654 
304 1 304 0.439745 0.720341 0 0.485833 
305 1 305 0.43973 0.76037 0 0.841294 
306 1 306 0.439712 0.800397 0 1.14033 
307 1 307 0.439693 0.840424 0 1.22295 
308 1 308 0.439671 0.880447 0 1.17732 
309 1 309 0.439646 0.920466 0 0.948103 
310 1 310 0.439619 0.960481 0 0.514105 
311 1 311 0.439591 1.00049 0 0.319134 
312 1 312 0.48 0 0 0 
313 1 313 0.479985 0.0400046 0 -0.228668 
314 1 314 0.479971 0.0800124 0 -0.0987195 
315 1 315 0.479952 0.120023 0 0.193837 
316 1 316 0.479933 0.160035 0 0.311788 
317 1 317 0.479911 0.20005 0 0.439632 
318 1 318 0.479891 0.240067 0 0.387575 
319 1 319 0.479871 0.280086 0 0.372752 
320 1 320 0.479852 0.320108 0 0.43738 
321 1 321 0.479833 0.360133 0 0.561526 
322 1 322 0.479812 0.400158 0 0.613009 
323 1 323 0.479797 0.440185 0 0.590662 
324 1 324 0.47978 0.480211 0 0.361932 
325 1 325 0.479771 0.520238 0 -0.0588837 
326 1 326 0.479761 0.560264 0 -0.344675 
327 1 327 0.479754 0.60029 0 -0.406766 
328 1 328 0.47974 0.640315 0 -0.213212 
329 1 329 0.479723 0.680343 0 0.124747 
330 1 330 0.479705 0.72037 0 0.486313 
331 1 331 0.479693 0.7604 0 0.77688 
332 1 332 0.479676 0.800428 0 0.988915 
333 1 333 0.479658 0.840454 0 0.9523 
334 1 334 0.479639 0.880476 0 0.881546 
335 1 335 0.479616 0.920494 0 0.610444 
336 1 336 0.479592 0.960507 0 0.321507 
337 1 337 0.479564 1.00052 0 0.305831 
338 1 338 0.52 0 0 0 
339 1 339 0.519981 0.0400053 0 -0.348993 
340 1 340 0.519962 0.0800144 0 -0.233944 
341 1 341 0.519941 0.120026 0 0.130815 
342 1 342 0.519921 0.16004 0 0.372698 
343 1 343 0.519897 0.200056 0 0.6022 
344 1 344 0.519875 0.240075 0 0.638936 
345 1 345 0.519853 0.280096 0 0.687158 
346 1 346 0.51983 0.320121 0 0.738072 
347 1 347 0.519809 0.360148 0 0.837745 
348 1 348 0.519787 0.400175 0 0.857125 
349 1 349 0.519771 0.440204 0 0.747894 
350 1 350 0.519754 0.480232 0 0.431477 
351 1 351 0.519745 0.52026 0 0.00971672 
352 1 352 0.519733 0.560288 0 -0.225977 
353 1 353 0.519722 0.600318 0 -0.302812 
354 1 354 0.51971 0.640347 0 -0.139324 
355 1 355 0.519699 0.680378 0 0.173397 
356 1 356 0.519683 0.720407 0 0.435779 
357 1 357 0.519667 0.760436 0 0.664879 
358 1 358 0.519647 0.800461 0 0.788802 
359 1 359 0.519632 0.840485 0 0.661239 
360 1 360 0.519614 0.880504 0 0.565619 
361 1 361 0.519592 0.92052 0 0.276002 
362 1 362 0.519569 0.960533 0 0.178889 
363 1 363 0.519543 1.00055 0 0.34689 
364 1 364 0.56 0 0 0 
365 1 365 0.559974 0.0400058 0 -0.279788 
366 1 366 0.559953 0.0800156 0 -0.198219 
367 1 367 0.559929 0.120028 0 0.123068 
368 1 368 0.559907 0.160043 0 0.393834 
369 1 369 0.559882 0.200061 0 0.657544 
370 1 370 0.559858 0.240081 0 0.789488 
371 1 371 0.559832 0.280106 0 0.92012 
372 1 372 0.559807 0.320133 0 0.949943 
373 1 373 0.559785 0.360162 0 1.03506 
374 1 374 0.559761 0.400192 0 1.02145 
375 1 375 0.559743 0.440223 0 0.831684 
376 1 376 0.559724 0.480252 0 0.486396 
377 1 377 0.559711 0.520283 0 0.0712639 
378 1 378 0.5597 0.560314 0 -0.139495 
379 1 379 0.559692 0.600345 0 -0.188393 
380 1 380 0.559677 0.640375 0 -0.0500136 
381 1 381 0.559659 0.680407 0 0.20141 
382 1 382 0.559639 0.720436 0 0.367265 
383 1 383 0.559627 0.760465 0 0.541139 
384 1 384 0.55961 0.80049 0 0.61022 
385 1 385 0.559596 0.840512 0 0.421619 
386 1 386 0.559581 0.88053 0 0.265463 
387 1 387 0.559562 0.920545 0 -0.037074 
388 1 388 0.55954 0.960557 0 0.0180447 
389 1 389 0.559513 1.00057 0 0.295778 
390 1 390 0.6 0 0 0 
391 1 391 0.599971 0.0400066 0 -0.103339 
392 1 392 0.599945 0.0800178 0 -0.0546822 
393 1 393 0.599917 0.120031 0 0.147736 
394 1 394 0.599894 0.160048 0 0.388392 
395 1 395 0.599866 0.200067 0 0.660655 
396 1 396 0.59984 0.240089 0 0.87027 
397 1 397 0.599811 0.280115 0 1.11078 
398 1 398 0.599783 0.320143 0 1.17926 
399 1 399 0.599758 0.360174 0 1.19315 
400 1 400 0.599734 0.400205 0 1.06666 
401 1 401 0.599715 0.440237 0 0.796974 
402 1 402 0.599695 0.480267 0 0.472434 
403 1 403 0.599683 0.5203 0 0.116673 
404 1 404 0.599668 0.560333 0 -0.0747598 
405 1 405 0.599655 0.600368 0 -0.0711644 
406 1 406 0.599642 0.640403 0 0.0433039 
407 1 407 0.599631 0.680437 0 0.20726 
408 1 408 0.599615 0.720468 0 0.311835 
409 1 409 0.599599 0.760496 0 0.417124 
410 1 410 0.599581 0.800519 0 0.458082 
411 1 411 0.59957 0.84054 0 0.305634 
412 1 412 0.599556 0.880556 0 0.103565 
413 1 413 0.599537 0.920571 0 -0.216181 
414 1 414 0.599515 0.960583 0 -0.091265 
415 1 415 0.599489 1.0006 0 0.200482 
416 1 416 0.64 0 0 0 
417 1 417 0.639965 0.0400083 0 0.20222 
418 1 418 0.639936 0.0800204 0 0.237189 
419 1 419 0.639905 0.120035 0 0.260655 
420 1 420 0.639879 0.160053 0 0.427174 
421 1 421 0.639849 0.200074 0 0.689278 
422 1 422 0.63982 0.240098 0 0.916348 
423 1 423 0.639787 0.280125 0 1.14455 
424 1 424 0.639757 0.320155 0 1.21795 
425 1 425 0.63973 0.360187 0 1.21818 
426 1 426 0.639704 0.400219 0 1.04204 
427 1 427 0.639683 0.440252 0 0.716922 
428 1 428 0.639662 0.480283 0 0.361032 
429 1 429 0.639644 0.520317 0 0.0644731 
430 1 430 0.63963 0.560351 0 -0.0563775 
431 1 431 0.63962 0.600387 0 -0.0111143 
432 1 432 0.639604 0.640421 0 0.0658854 
433 1 433 0.639586 0.680456 0 0.214119 
434 1 434 0.639566 0.720488 0 0.377332 
435 1 435 0.639555 0.760518 0 0.479495 
436 1 436 0.639542 0.800543 0 0.499535 
437 1 437 0.639531 0.840564 0 0.335667 
438 1 438 0.639517 0.880581 0 0.0189437 
439 1 439 0.639504 0.920597 0 -0.312646 
440 1 440 0.639483 0.96061 0 -0.150959 
441 1 441 0.639455 1.00062 0 0.0957694 
442 1 442 0.68 0 0 0 
443 1 443 0.679963 0.0400103 0 0.508776 
444 1 444 0.679928 0.0800235 0 0.546263 
445 1 445 0.679893 0.12004 0 0.410342 
446 1 446 0.679863 0.16006 0 0.445598 
447 1 447 0.679829 0.200083 0 0.623459 
448 1 448 0.679797 0.240108 0 0.884452 
449 1 449 0.679762 0.280136 0 1.14547 
450 1 450 0.679729 0.320167 0 1.21629 
451 1 451 0.6797 0.360198 0 1.12985 
452 1 452 0.679674 0.40023 0 0.857164 
453 1 453 0.679652 0.440262 0 0.515424 
454 1 454 0.679631 0.480293 0 0.199864 
455 1 455 0.679613 0.520327 0 0.0138664 
456 1 456 0.679595 0.560362 0 -0.013834 
457 1 457 0.679579 0.600401 0 0.10824 
458 1 458 0.679563 0.640439 0 0.195757 
459 1 459 0.679555 0.680476 0 0.325764 
460 1 460 0.679539 0.72051 0 0.488143 
461 1 461 0.679524 0.76054 0 0.540309 
462 1 462 0.679509 0.800566 0 0.556325 
463 1 463 0.679501 0.840589 0 0.427717 
464 1 464 0.679489 0.880607 0 0.0348331 
465 1 465 0.679476 0.920625 0 -0.326853 
466 1 466 0.679455 0.960639 0 -0.235855 
467 1 467 0.67943 1.00065 0 -0.103993 
468 1 468 0.72 0 0 0 
469 1 469 0.719958 0.040012 0 0.707296 
470 1 470 0.719919 0.0800265 0 0.7505 
471 1 471 0.71988 0.120044 0 0.511184 
472 1 472 0.719845 0.160066 0 0.453938 
473 1 473 0.719809 0.200091 0 0.544748 
474 1 474 0.719772 0.240118 0 0.794901 
475 1 475 0.719733 0.280147 0 1.03797 
476 1 476 0.719698 0.320177 0 1.10082 
477 1 477 0.719667 0.360209 0 0.956933 
478 1 478 0.719641 0.400241 0 0.633614 
479 1 479 0.719617 0.440274 0 0.317041 
480 1 480 0.719594 0.480306 0 0.0739225 
481 1 481 0.719571 0.520341 0 0.0263835 
482 1 482 0.719553 0.560376 0 0.0673062 
483 1 483 0.71954 0.600413 0 0.232277 
484 1 484 0.719521 0.640449 0 0.35446 
485 1 485 0.719503 0.680486 0 0.503668 
486 1 486 0.719484 0.720522 0 0.72454 
487 1 487 0.719475 0.760555 0 0.797786 
488 1 488 0.719465 0.800583 0 0.78672 
489 1 489 0.719457 0.840609 0 0.621799 
490 1 490 0.719445 0.88063 0 0.189415 
491 1 491 0.719437 0.920651 0 -0.162855 
492 1 492 0.719419 0.960668 0 -0.208904 
493 1 493 0.719394 1.00068 0 -0.236396 
494 1 494 0.76 0 0 0 
495 1 495 0.759956 0.0400133 0 0.758915 
496 1 496 0.75991 0.0800292 0 0.841572 
497 1 497 0.759865 0.120048 0 0.586519 
498 1 498 0.759825 0.160071 0 0.467498 
499 1 499 0.759784 0.200096 0 0.438321 
500 1 500 0.759744 0.240124 0 0.603428 
501 1 501 0.759703 0.280154 0 0.799383 
502 1 502 0.759667 0.320184 0 0.892462 
503 1 503 0.759633 0.360216 0 0.767754 
504 1 504 0.759608 0.400248 0 0.466776 
505 1 505 0.759582 0.440281 0 0.199961 
506 1 506 0.759559 0.480314 0 0.019776 
507 1 507 0.759537 0.52035 0 0.114018 
508 1 508 0.759515 0.560386 0 0.243883 
509 1 509 0.759495 0.600425 0 0.437533 
510 1 510 0.759477 0.640464 0 0.585057 
511 1 511 0.759468 0.680502 0 0.743526 
512 1 512 0.759454 0.720538 0 0.97521 
513 1 513 0.759439 0.760571 0 1.04204 
514 1 514 0.759427 0.800601 0 0.982669 
515 1 515 0.759421 0.84063 0 0.77661 
516 1 516 0.759411 0.880654 0 0.345592 
517 1 517 0.759401 0.920677 0 -0.0101984 
518 1 518 0.759387 0.960696 0 -0.206905 
519 1 519 0.759368 1.00071 0 -0.367431 
520 1 520 0.8 0 0 0 
521 1 521 0.799951 0.0400141 0 0.648749 
522 1 522 0.7999 0.0800298 0 0.766928 
523 1 523 0.79985 0.120049 0 0.541613 
524 1 524 0.799802 0.160072 0 0.371598 
525 1 525 0.799758 0.200099 0 0.288745 
526 1 526 0.799714 0.240128 0 0.475118 
527 1 527 0.79967 0.280158 0 0.671049 
528 1 528 0.799633 0.320189 0 0.753649 
529 1 529 0.799598 0.360222 0 0.602368 
530 1 530 0.79957 0.400255 0 0.327464 
531 1 531 0.799543 0.440291 0 0.155606 
532 1 532 0.799518 0.480326 0 0.0795047 
533 1 533 0.799491 0.520363 0 0.277875 
534 1 534 0.799469 0.560399 0 0.431454 
535 1 535 0.799452 0.600436 0 0.613475 
536 1 536 0.79943 0.640472 0 0.783005 
537 1 537 0.79941 0.680509 0 0.942239 
538 1 538 0.799393 0.720546 0 1.17711 
539 1 539 0.799385 0.760581 0 1.28741 
540 1 540 0.799378 0.800613 0 1.20869 
541 1 541 0.799371 0.840643 0 0.984144 
542 1 542 0.799362 0.880671 0 0.613487 
543 1 543 0.799357 0.920698 0 0.255443 
544 1 544 0.799346 0.96072 0 -0.0799456 
545 1 545 0.79933 1.00074 0 -0.332774 
546 1 546 0.84 0 0 0 
547 1 547 0.839947 0.0400131 0 0.421161 
548 1 548 0.839889 0.0800287 0 0.576791 
549 1 549 0.839833 0.120048 0 0.485774 
550 1 550 0.839779 0.160071 0 0.370129 
551 1 551 0.83973 0.200098 0 0.237278 
552 1 552 0.839682 0.240127 0 0.37267 
553 1 553 0.839637 0.280158 0 0.530419 
554 1 554 0.839598 0.32019 0 0.640718 
555 1 555 0.839561 0.360223 0 0.575799 
556 1 556 0.839534 0.400257 0 0.388031 
557 1 557 0.839504 0.440293 0 0.275556 
558 1 558 0.839479 0.48033 0 0.229837 
559 1 559 0.839454 0.520369 0 0.439464 
560 1 560 0.839427 0.560407 0 0.562077 
561 1 561 0.839402 0.600446 0 0.6791 
562 1 562 0.839382 0.640486 0 0.861203 
563 1 563 0.839372 0.680524 0 1.0742 
564 1 564 0.839359 0.72056 0 1.31291 
565 1 565 0.839346 0.760594 0 1.43378 
566 1 566 0.839334 0.800627 0 1.32255 
567 1 567 0.83933 0.840659 0 1.08942 
568 1 568 0.839323 0.880688 0 0.811808 
569 1 569 0.839315 0.920716 0 0.473619 
570 1 570 0.839308 0.96074 0 0.0439727 
571 1 571 0.839299 1.00076 0 -0.257066 
572 1 572 0.88 0 0 0 
573 1 573 0.879939 0.040011 0 0.16099 
574 1 574 0.879876 0.080026 0 0.40034 
575 1 575 0.879814 0.120045 0 0.500045 
576 1 576 0.879753 0.160067 0 0.453508 
577 1 577 0.879699 0.200094 0 0.27614 
578 1 578 0.879649 0.240123 0 0.359186 
579 1 579 0.879601 0.280155 0 0.505245 
580 1 580 0.879562 0.320188 0 0.663629 
581 1 581 0.879524 0.360223 0 0.672053 
582 1 582 0.879492 0.400258 0 0.535529 
583 1 583 0.87946 0.440298 0 0.448842 
584 1 584 0.879432 0.480337 0 0.390982 
585 1 585 0.879402 0.520377 0 0.520437 
586 1 586 0.879376 0.560416 0 0.569792 
587 1 587 0.879354 0.600454 0 0.621345 
588 1 588 0.87933 0.640491 0 0.782966 
589 1 589 0.879306 0.680528 0 0.998447 
590 1 590 0.87929 0.720564 0 1.22797 
591 1 591 0.879285 0.7606 0 1.41563 
592 1 592 0.879279 0.800633 0 1.33288 
593 1 593 0.879275 0.840666 0 1.11279 
594 1 594 0.879269 0.880697 0 0.952519 
595 1 595 0.879266 0.920727 0 0.688655 
596 1 596 0.879262 0.960753 0 0.252989 
597 1 597 0.879256 1.00078 0 -0.0395079 
598 1 598 0.92 0 0 0 
599 1 599 0.919933 0.0400083 0 -0.067526 
600 1 600 0.919862 0.0800222 0 0.220731 
601 1 601 0.919794 0.12004 0 0.467884 
602 1 602 0.919729 0.160061 0 0.530333 
603 1 603 0.919669 0.200087 0 0.423845 
604 1 604 0.919615 0.240116 0 0.496039 
605 1 605 0.919566 0.280148 0 0.582549 
606 1 606 0.919525 0.320181 0 0.731482 
607 1 607 0.919484 0.360217 0 0.781844 
608 1 608 0.919452 0.400253 0 0.679012 
609 1 609 0.919416 0.440293 0 0.616652 
610 1 610 0.919386 0.480335 0 0.543995 
611 1 611 0.919357 0.520376 0 0.538903 
612 1 612 0.919327 0.560418 0 0.455895 
613 1 613 0.919296 0.600459 0 0.400743 
614 1 614 0.919275 0.6405 0 0.542243 
615 1 615 0.919263 0.680539 0 0.81216 
616 1 616 0.919252 0.720575 0 1.04807 
617 1 617 0.91924 0.76061 0 1.26114 
618 1 618 0.919231 0.800644 0 1.23284 
619 1 619 0.91923 0.840676 0 1.08307 
620 1 620 0.919225 0.880706 0 1.00546 
621 1 621 0.91922 0.920735 0 0.803103 
622 1 622 0.919219 0.960761 0 0.436375 
623 1 623 0.919218 1.00078 0 0.200468 
624 1 624 0.96 0 0 0 
625 1 625 0.959922 0.0400058 0 -0.205393 
626 1 626 0.959847 0.0800173 0 0.161768 
627 1 627 0.959776 0.120034 0 0.545702 
628 1 628 0.959703 0.160054 0 0.646588 
629 1 629 0.959638 0.20008 0 0.510641 
630 1 630 0.95958 0.240108 0 0.529937 
631 1 631 0.959528 0.280141 0 0.579112 
632 1 632 0.959485 0.320174 0 0.722131 
633 1 633 0.959442 0.360211 0 0.841476 
634 1 634 0.959404 0.40025 0 0.815678 
635 1 635 0.959366 0.440292 0 0.750952 
636 1 636 0.959331 0.480334 0 0.596669 
637 1 637 0.959295 0.520377 0 0.408588 
638 1 638 0.959266 0.560419 0 0.215039 
639 1 639 0.959239 0.60046 0 0.106147 
640 1 640 0.959213 0.640498 0 0.217049 
641 1 641 0.959187 0.680537 0 0.505538 
642 1 642 0.959173 0.720574 0 0.750409 
643 1 643 0.959172 0.76061 0 0.97076 
644 1 644 0.95917 0.800643 0 0.99026 
645 1 645 0.959168 0.840676 0 0.914852 
646 1 646 0.959166 0.880707 0 0.915307 
647 1 647 0.959167 0.920736 0 0.869285 
648 1 648 0.959167 0.960763 0 0.672208 
649 1 649 0.959168 1.00079 0 0.510086 
650 1 650 1 0 0 0 
651 1 651 0.999916 0.0400029 0 -0.204827 
652 1 652 0.999832 0.0800132 0 0.176278 
653 1 653 0.999754 0.120028 0 0.589675 
654 1 654 0.999678 0.160047 0 0.713492 
655 1 655 0.999607 0.200072 0 0.563659 
656 1 656 0.999544 0.240099 0 0.484137 
657 1 657 0.99949 0.280131 0 0.446146 
658 1 658 0.999442 0.320165 0 0.552585 
659 1 659 0.999396 0.360203 0 0.705987 
660 1 660 0.999354 0.400241 0 0.745661 
661 1 661 0.999312 0.440283 0 0.703066 
662 1 662 0.999275 0.480326 0 0.554335 
663 1 663 0.999241 0.52037 0 0.283818 
664 1 664 0.999207 0.560413 0 0.0148802 
665 1 665 0.999172 0.600457 0 -0.131677 
666 1 666 0.99915 0.640499 0 -0.0447022 
667 1 667 0.999138 0.680539 0 0.246591 
668 1 668 0.999131 0.720576 0 0.502725 
669 1 669 0.999121 0.760612 0 0.706839 
670 1 670 0.999117 0.800645 0 0.767308 
671 1 671 0.999119 0.840677 0 0.785362 
672 1 672 0.999118 0.880706 0 0.828393 
673 1 673 0.999116 0.920735 0 0.886261 
674 1 674 0.999116 0.960762 0 0.789187 
675 1 675 0.999122 1.00079 0 0.651548 
676 1 676 1.04 0 0 0 
677 1 677 1.0399 0.0400013 0 -0.122989 
678 1 678 1.03982 0.0800096 0 0.200231 
679 1 679 1.03974 0.120023 0 0.543458 
680 1 680 1.03965 0.160041 0 0.663172 
681 1 681 1.03957 0.200064 0 0.52028 
682 1 682 1.03951 0.240091 0 0.338192 
683 1 683 1.03945 0.280123 0 0.179973 
684 1 684 1.03939 0.320158 0 0.207962 
685 1 685 1.03934 0.360195 0 0.36802 
686 1 686 1.0393 0.400235 0 0.504053 
687 1 687 1.03925 0.440276 0 0.541127 
688 1 688 1.03921 0.480319 0 0.459054 
689 1 689 1.03917 0.520362 0 0.180088 
690 1 690 1.03914 0.560404 0 -0.122088 
691 1 691 1.03911 0.600445 0 -0.262447 
692 1 692 1.03908 0.640484 0 -0.162593 
693 1 693 1.03906 0.680524 0 0.106476 
694 1 694 1.03905 0.720561 0 0.358949 
695 1 695 1.03905 0.760597 0 0.544804 
696 1 696 1.03905 0.800631 0 0.638548 
697 1 697 1.03905 0.840665 0 0.737577 
698 1 698 1.03905 0.880697 0 0.81102 
699 1 699 1.03906 0.920727 0 0.987216 
700 1 700 1.03906 0.960756 0 0.971723 
701 1 701 1.03906 1.00078 0 0.82737 
702 1 702 1.08 0 0 0 
703 1 703 1.0799 0.0400004 0 0.0312909 
704 1 704 1.0798 0.0800065 0 0.285369 
705 1 705 1.07971 0.120018 0 0.497998 
706 1 706 1.07962 0.160035 0 0.529304 
707 1 707 1.07954 0.200057 0 0.331732 
708 1 708 1.07947 0.240084 0 0.0395816 
709 1 709 1.0794 0.280114 0 -0.223282 
710 1 710 1.07934 0.320147 0 -0.266149 
711 1 711 1.07929 0.360184 0 -0.109786 
712 1 712 1.07924 0.400221 0 0.131512 
713 1 713 1.07919 0.440261 0 0.272345 
714 1 714 1.07915 0.480302 0 0.271677 
715 1 715 1.07911 0.520344 0 0.0642164 
716 1 716 1.07907 0.560387 0 -0.158772 
717 1 717 1.07904 0.60043 0 -0.221072 
718 1 718 1.07902 0.640471 0 -0.0807617 
719 1 719 1.079 0.680511 0 0.151467 
720 1 720 1.079 0.720547 0 0.386381 
721 1 721 1.07899 0.760583 0 0.548137 
722 1 722 1.07899 0.800618 0 0.671985 
723 1 723 1.07899 0.840652 0 0.83008 
724 1 724 1.079 0.880684 0 0.855467 
725 1 725 1.079 0.920716 0 1.04769 
726 1 726 1.079 0.960747 0 1.07213 
727 1 727 1.07901 1.00078 0 0.925832 
728 1 728 1.12 0 0 0 
729 1 729 1.11989 0.0399998 0 0.0905826 
730 1 730 1.11979 0.0800038 0 0.252954 
731 1 731 1.11969 0.120014 0 0.382111 
732 1 732 1.1196 0.16003 0 0.359735 
733 1 733 1.1195 0.200051 0 0.131408 
734 1 734 1.11942 0.240075 0 -0.225661 
735 1 735 1.11935 0.280104 0 -0.568208 
736 1 736 1.11929 0.320136 0 -0.695197 
737 1 737 1.11923 0.360172 0 -0.587055 
738 1 738 1.11918 0.400209 0 -0.287969 
739 1 739 1.11912 0.440247 0 -0.0412196 
740 1 740 1.11908 0.480286 0 0.0970488 
741 1 741 1.11904 0.520326 0 0.0279396 
742 1 742 1.119 0.560365 0 -0.106317 
743 1 743 1.11897 0.600404 0 -0.0952952 
744 1 744 1.11895 0.640441 0 0.101193 
745 1 745 1.11892 0.680478 0 0.303147 
746 1 746 1.11891 0.720515 0 0.539874 
747 1 747 1.11891 0.760553 0 0.702642 
748 1 748 1.11892 0.800589 0 0.840339 
749 1 749 1.11892 0.840626 0 1.0423 
750 1 750 1.11892 0.880663 0 1.04946 
751 1 751 1.11893 0.920699 0 1.21697 
752 1 752 1.11893 0.960733 0 1.16268 
753 1 753 1.11894 1.00077 0 0.955889 
754 1 754 1.16 0 0 0 
755 1 755 1.15989 0.0399979 0 0.0939253 
756 1 756 1.15978 0.0800005 0 0.183271 
757 1 757 1.15967 0.120009 0 0.248684 
758 1 758 1.15957 0.160024 0 0.189915 
759 1 759 1.15947 0.200042 0 -0.00418369 
760 1 760 1.15938 0.240064 0 -0.367192 
761 1 761 1.1593 0.280091 0 -0.794981 
762 1 762 1.15923 0.32012 0 -1.03882 
763 1 763 1.15917 0.360152 0 -1.00269 
764 1 764 1.15911 0.400186 0 -0.663851 
765 1 765 1.15906 0.440221 0 -0.350814 
766 1 766 1.15902 0.480258 0 -0.131483 
767 1 767 1.15898 0.520296 0 -0.0710998 
768 1 768 1.15894 0.560336 0 -0.105205 
769 1 769 1.15891 0.600376 0 -0.040764 
770 1 770 1.15888 0.640416 0 0.21529 
771 1 771 1.15887 0.680455 0 0.44254 
772 1 772 1.15887 0.72049 0 0.714432 
773 1 773 1.15885 0.760527 0 0.907451 
774 1 774 1.15885 0.800564 0 1.10062 
775 1 775 1.15885 0.840602 0 1.36476 
776 1 776 1.15885 0.880641 0 1.37276 