ITEM: TIMESTEP
0
ITEM: NUMBER OF ATOMS
7127
ITEM: BOX BOUNDS sm sm sm
0 4
0 2
0 0
ITEM: ATOMS id type tag x y z vx 
0 1 0 0 0 0 0 
1 1 1 0 0.04 0 0 
2 1 2 0 0.08 0 0 
3 1 3 0 0.12 0 0 
4 1 4 0 0.16 0 0 
5 1 5 0 0.2 0 0 
6 1 6 0 0.24 0 0 
7 1 7 0 0.28 0 0 
8 1 8 0 0.32 0 0 
9 1 9 0 0.36 0 0 
10 1 10 0 0.4 0 0 
11 1 11 0 0.44 0 0 
12 1 12 0 0.48 0 0 
13 1 13 0 0.52 0 0 
14 1 14 0 0.56 0 0 
15 1 15 0 0.6 0 0 
16 1 16 0 0.64 0 0 
17 1 17 0 0.68 0 0 
18 1 18 0 0.72 0 0 
19 1 19 0 0.76 0 0 
20 1 20 0 0.8 0 0 
21 1 21 0 0.84 0 0 
22 1 22 0 0.88 0 0 
23 1 23 0 0.92 0 0 
24 1 24 0 0.96 0 0 
25 1 25 0 1 0 0 
26 1 26 0.04 0 0 0 
27 1 27 0.0399864 0.0399867 0 0.204477 
28 1 28 0.0399844 0.0799818 0 0.341145 
29 1 29 0.0399858 0.119977 0 0.205896 
30 1 30 0.0399847 0.159974 0 -0.00456723 
31 1 31 0.0399835 0.199971 0 -0.154893 
32 1 32 0.03998 0.239972 0 -0.176675 
33 1 33 0.0399785 0.279974 0 -0.117733 
34 1 34 0.0399766 0.319977 0 -0.0556465 
35 1 35 0.0399748 0.359979 0 -0.00615531 
36 1 36 0.0399706 0.399981 0 0.0091765 
37 1 37 0.0399684 0.439981 0 0.106918 
38 1 38 0.0399619 0.479984 0 0.0766684 
39 1 39 0.0399617 0.519986 0 0.0433519 
40 1 40 0.0399562 0.559992 0 0.0279157 
41 1 41 0.0399565 0.599996 0 -0.0763639 
42 1 42 0.0399526 0.640002 0 -0.0467852 
43 1 43 0.0399526 0.680004 0 0.016642 
44 1 44 0.0399459 0.720012 0 0.0612602 
45 1 45 0.0399441 0.760015 0 0.103015 
46 1 46 0.0399344 0.800025 0 0.113713 
47 1 47 0.039933 0.840032 0 0.173285 
48 1 48 0.0399231 0.880048 0 0.18908 
49 1 49 0.0399194 0.920061 0 0.206174 
50 1 50 0.0399119 0.960085 0 0.27016 
51 1 51 0.0398355 1.00016 0 0.239042 
52 1 52 0.08 0 0 0 
53 1 53 0.0799806 0.0399839 0 0.357888 
54 1 54 0.0799744 0.0799731 0 0.442246 
55 1 55 0.0799745 0.119964 0 0.236218 
56 1 56 0.0799702 0.159957 0 0.11606 
57 1 57 0.0799652 0.199953 0 0.0689599 
58 1 58 0.0799584 0.239953 0 0.0393674 
59 1 59 0.0799531 0.279955 0 -0.0378101 
60 1 60 0.0799492 0.31996 0 -0.098652 
61 1 61 0.0799447 0.359963 0 -0.0737601 
62 1 62 0.0799392 0.399968 0 -0.0393692 
63 1 63 0.079933 0.439972 0 0.141503 
64 1 64 0.0799229 0.479977 0 0.165641 
65 1 65 0.0799169 0.519983 0 0.149599 
66 1 66 0.0799097 0.559991 0 0.114176 
67 1 67 0.079907 0.599999 0 -0.0635745 
68 1 68 0.0799038 0.640008 0 -0.0579395 
69 1 69 0.0798976 0.680016 0 -0.0641986 
70 1 70 0.0798908 0.720024 0 0.0225471 
71 1 71 0.0798794 0.760036 0 0.138607 
72 1 72 0.0798683 0.800049 0 0.284516 
73 1 73 0.0798531 0.840071 0 0.415202 
74 1 74 0.0798418 0.880092 0 0.548314 
75 1 75 0.0798287 0.920127 0 0.686262 
76 1 76 0.0797896 0.960179 0 0.609054 
77 1 77 0.0797391 1.00021 0 0.529809 
78 1 78 0.12 0 0 0 
79 1 79 0.11998 0.0399846 0 0.483202 
80 1 80 0.11997 0.0799704 0 0.482771 
81 1 81 0.119965 0.119957 0 0.252797 
82 1 82 0.119956 0.159949 0 0.280468 
83 1 83 0.119946 0.199943 0 0.338852 
84 1 84 0.119935 0.239943 0 0.263789 
85 1 85 0.119925 0.279943 0 0.0908794 
86 1 86 0.119918 0.319949 0 -0.0295709 
87 1 87 0.119912 0.359954 0 -0.0295658 
88 1 88 0.119903 0.399961 0 0.0150677 
89 1 89 0.119894 0.439968 0 0.226009 
90 1 90 0.119879 0.479977 0 0.31903 
91 1 91 0.119871 0.519985 0 0.328328 
92 1 92 0.11986 0.559997 0 0.230129 
93 1 93 0.119855 0.600006 0 -0.0163277 
94 1 94 0.119848 0.640019 0 -0.0563875 
95 1 95 0.119843 0.680029 0 -0.0994303 
96 1 96 0.119831 0.720044 0 0.0517429 
97 1 97 0.119815 0.760059 0 0.254879 
98 1 98 0.119795 0.800081 0 0.519217 
99 1 99 0.119774 0.840106 0 0.760016 
100 1 100 0.119754 0.880141 0 0.947416 
101 1 101 0.119725 0.920183 0 1.10711 
102 1 102 0.119689 0.960227 0 0.944826 
103 1 103 0.119647 1.00028 0 0.818129 
104 1 104 0.16 0 0 0 
105 1 105 0.159981 0.0399864 0 0.479222 
106 1 106 0.159967 0.0799697 0 0.533792 
107 1 107 0.159957 0.119955 0 0.418411 
108 1 108 0.159942 0.159946 0 0.475079 
109 1 109 0.159927 0.19994 0 0.511893 
110 1 110 0.15991 0.239939 0 0.439777 
111 1 111 0.159895 0.27994 0 0.273963 
112 1 112 0.159884 0.319945 0 0.111973 
113 1 113 0.159875 0.359951 0 0.0649572 
114 1 114 0.159863 0.39996 0 0.107906 
115 1 115 0.159851 0.439969 0 0.327283 
116 1 116 0.159833 0.47998 0 0.455763 
117 1 117 0.15982 0.519991 0 0.437503 
118 1 118 0.159806 0.560005 0 0.256891 
119 1 119 0.159801 0.600017 0 -0.0384392 
120 1 120 0.159792 0.640032 0 -0.159305 
121 1 121 0.159782 0.680047 0 -0.165699 
122 1 122 0.159765 0.720065 0 0.0994172 
123 1 123 0.159744 0.760087 0 0.390321 
124 1 124 0.159718 0.800113 0 0.765186 
125 1 125 0.159689 0.840145 0 1.10671 
126 1 126 0.15966 0.880183 0 1.38819 
127 1 127 0.159629 0.920225 0 1.53237 
128 1 128 0.159592 0.960271 0 1.37132 
129 1 129 0.159551 1.00032 0 1.2972 
130 1 130 0.2 0 0 0 
131 1 131 0.199984 0.0399866 0 0.313814 
132 1 132 0.199967 0.0799701 0 0.476702 
133 1 133 0.19995 0.119957 0 0.539437 
134 1 134 0.199929 0.159949 0 0.603653 
135 1 135 0.199907 0.199942 0 0.697896 
136 1 136 0.199884 0.23994 0 0.700987 
137 1 137 0.199865 0.279941 0 0.513779 
138 1 138 0.19985 0.319946 0 0.282843 
139 1 139 0.199837 0.359952 0 0.187655 
140 1 140 0.199822 0.399963 0 0.21984 
141 1 141 0.199805 0.439974 0 0.409419 
142 1 142 0.199786 0.479988 0 0.543824 
143 1 143 0.19977 0.52 0 0.466609 
144 1 144 0.199754 0.560016 0 0.210008 
145 1 145 0.199743 0.600032 0 -0.0992316 
146 1 146 0.19973 0.64005 0 -0.334457 
147 1 147 0.199721 0.68007 0 -0.34029 
148 1 148 0.199701 0.720094 0 -0.00102316 
149 1 149 0.199674 0.760119 0 0.36809 
150 1 150 0.199642 0.800149 0 0.887626 
151 1 151 0.199607 0.840182 0 1.28836 
152 1 152 0.199573 0.880221 0 1.64608 
153 1 153 0.199535 0.920263 0 1.8334 
154 1 154 0.199497 0.960308 0 1.77713 
155 1 155 0.19946 1.00035 0 1.82927 
156 1 156 0.24 0 0 0 
157 1 157 0.239986 0.0399857 0 0.156784 
158 1 158 0.239966 0.079971 0 0.396527 
159 1 159 0.239942 0.119961 0 0.614761 
160 1 160 0.239914 0.159954 0 0.729625 
161 1 161 0.239888 0.199949 0 0.877559 
162 1 162 0.23986 0.239948 0 0.85696 
163 1 163 0.239837 0.279948 0 0.640357 
164 1 164 0.239815 0.319952 0 0.402328 
165 1 165 0.239799 0.35996 0 0.23927 
166 1 166 0.23978 0.399972 0 0.240419 
167 1 167 0.239761 0.439985 0 0.358714 
168 1 168 0.239739 0.480001 0 0.473722 
169 1 169 0.239717 0.520015 0 0.368905 
170 1 170 0.239699 0.560032 0 0.0461218 
171 1 171 0.239687 0.60005 0 -0.266953 
172 1 172 0.239668 0.640071 0 -0.548522 
173 1 173 0.239651 0.680094 0 -0.532589 
174 1 174 0.239625 0.720122 0 -0.204405 
175 1 175 0.239598 0.760151 0 0.187487 
176 1 176 0.239562 0.800183 0 0.801262 
177 1 177 0.239522 0.840218 0 1.255 
178 1 178 0.239484 0.880256 0 1.68691 
179 1 179 0.239443 0.920297 0 1.9471 
180 1 180 0.239405 0.96034 0 2.11062 
181 1 181 0.239364 1.00039 0 2.33469 
182 1 182 0.28 0 0 0 
183 1 183 0.279986 0.0399856 0 0.0776329 
184 1 184 0.279962 0.0799737 0 0.3549 
185 1 185 0.279932 0.119965 0 0.708275 
186 1 186 0.279901 0.15996 0 0.844352 
187 1 187 0.27987 0.199958 0 0.918857 
188 1 188 0.279838 0.239957 0 0.831435 
189 1 189 0.279811 0.279958 0 0.663238 
190 1 190 0.279784 0.319963 0 0.477474 
191 1 191 0.279762 0.359972 0 0.235356 
192 1 192 0.279739 0.399985 0 0.180803 
193 1 193 0.279716 0.44 0 0.209337 
194 1 194 0.279693 0.480016 0 0.246019 
195 1 195 0.27967 0.520033 0 0.138622 
196 1 196 0.279647 0.560052 0 -0.185121 
197 1 197 0.279626 0.600073 0 -0.530297 
198 1 198 0.279604 0.640097 0 -0.842985 
199 1 199 0.279586 0.680125 0 -0.794451 
200 1 200 0.279556 0.720156 0 -0.51184 
201 1 201 0.279524 0.760188 0 -0.090858 
202 1 202 0.279484 0.800221 0 0.573573 
203 1 203 0.279444 0.840255 0 1.04893 
204 1 204 0.2794 0.880292 0 1.57372 
205 1 205 0.279353 0.920332 0 1.92787 
206 1 206 0.279312 0.960374 0 2.39754 
207 1 207 0.279273 1.00042 0 2.85823 
208 1 208 0.32 0 0 0 
209 1 209 0.319984 0.0399867 0 0.0850399 
210 1 210 0.319957 0.0799769 0 0.399598 
211 1 211 0.319922 0.11997 0 0.804065 
212 1 212 0.319886 0.159968 0 0.869033 
213 1 213 0.319853 0.199967 0 0.84581 
214 1 214 0.319817 0.239968 0 0.749205 
215 1 215 0.319786 0.279971 0 0.595969 
216 1 216 0.319754 0.319978 0 0.361724 
217 1 217 0.319726 0.359988 0 0.0448553 
218 1 218 0.319699 0.400003 0 -0.0454895 
219 1 219 0.319674 0.44002 0 -0.0380196 
220 1 220 0.319646 0.480038 0 0.00768228 
221 1 221 0.31962 0.520056 0 -0.0699324 
222 1 222 0.319594 0.560077 0 -0.342569 
223 1 223 0.319571 0.600099 0 -0.671779 
224 1 224 0.319542 0.640126 0 -0.990923 
225 1 225 0.319512 0.680155 0 -0.95463 
226 1 226 0.319476 0.72019 0 -0.739994 
227 1 227 0.319445 0.760223 0 -0.285587 
228 1 228 0.319402 0.800259 0 0.336038 
229 1 229 0.319359 0.840293 0 0.760811 
230 1 230 0.319313 0.88033 0 1.33864 
231 1 231 0.319266 0.920369 0 1.75404 
232 1 232 0.319222 0.960409 0 2.50025 
233 1 233 0.319178 1.00045 0 3.1656 
234 1 234 0.36 0 0 0 
235 1 235 0.359981 0.0399878 0 0.225231 
236 1 236 0.359949 0.0799805 0 0.545236 
237 1 237 0.359911 0.119977 0 0.84987 
238 1 238 0.359872 0.159976 0 0.780554 
239 1 239 0.359836 0.199977 0 0.617325 
240 1 240 0.359797 0.23998 0 0.455438 
241 1 241 0.359762 0.279985 0 0.29929 
242 1 242 0.359724 0.319994 0 0.0833245 
243 1 243 0.35969 0.360006 0 -0.143305 
244 1 244 0.359658 0.400022 0 -0.202083 
245 1 245 0.35963 0.440041 0 -0.239867 
246 1 246 0.359602 0.48006 0 -0.175794 
247 1 247 0.359575 0.520082 0 -0.200314 
248 1 248 0.359545 0.560104 0 -0.386822 
249 1 249 0.359512 0.60013 0 -0.633596 
250 1 250 0.359478 0.640161 0 -0.911639 
251 1 251 0.359447 0.680195 0 -0.935815 
252 1 252 0.359408 0.720231 0 -0.84246 
253 1 253 0.359371 0.760266 0 -0.426293 
254 1 254 0.359325 0.800303 0 0.0830612 
255 1 255 0.359284 0.840337 0 0.454826 
256 1 256 0.359232 0.880373 0 1.0457 
257 1 257 0.359179 0.920409 0 1.51885 
258 1 258 0.359133 0.960449 0 2.53369 
259 1 259 0.359089 1.00049 0 3.36217 
260 1 260 0.4 0 0 0 
261 1 261 0.399974 0.0399902 0 0.401744 
262 1 262 0.39994 0.0799854 0 0.700477 
263 1 263 0.399899 0.119984 0 0.84926 
264 1 264 0.399857 0.159984 0 0.635545 
265 1 265 0.399818 0.199987 0 0.309379 
266 1 266 0.399776 0.239992 0 0.0579689 
267 1 267 0.399736 0.28 0 -0.0588798 
268 1 268 0.399693 0.320012 0 -0.191622 
269 1 269 0.399655 0.360026 0 -0.314345 
270 1 270 0.399618 0.400044 0 -0.317224 
271 1 271 0.399587 0.440065 0 -0.305563 
272 1 272 0.399556 0.480086 0 -0.146196 
273 1 273 0.399525 0.52011 0 -0.078599 
274 1 274 0.399491 0.560136 0 -0.20049 
275 1 275 0.399458 0.600164 0 -0.416675 
276 1 276 0.399417 0.640197 0 -0.670078 
277 1 277 0.399374 0.680232 0 -0.72743 
278 1 278 0.399329 0.720271 0 -0.688052 
279 1 279 0.399292 0.760309 0 -0.370691 
280 1 280 0.399245 0.800347 0 -0.0510334 
281 1 281 0.399201 0.840382 0 0.275398 
282 1 282 0.399147 0.880417 0 0.825513 
283 1 283 0.399096 0.920453 0 1.30009 
284 1 284 0.399047 0.960491 0 2.42649 
285 1 285 0.398999 1.00053 0 3.27437 
286 1 286 0.44 0 0 0 
287 1 287 0.43997 0.0399933 0 0.54598 
288 1 288 0.43993 0.0799911 0 0.790736 
289 1 289 0.439887 0.119991 0 0.774889 
290 1 290 0.439842 0.159993 0 0.43731 
291 1 291 0.439799 0.199997 0 -0.00097892 
292 1 292 0.439753 0.240006 0 -0.29201 
293 1 293 0.43971 0.280015 0 -0.364616 
294 1 294 0.439661 0.320029 0 -0.395056 
295 1 295 0.439618 0.360045 0 -0.37137 
296 1 296 0.439577 0.400065 0 -0.266523 
297 1 297 0.439542 0.440087 0 -0.183373 
298 1 298 0.439509 0.480111 0 0.0227175 
299 1 299 0.439479 0.520138 0 0.144734 
300 1 300 0.439441 0.560168 0 0.0801257 
301 1 301 0.439398 0.600202 0 -0.0848671 
302 1 302 0.439352 0.640239 0 -0.342817 
303 1 303 0.439312 0.680278 0 -0.493576 
304 1 304 0.439266 0.720318 0 -0.481738 
305 1 305 0.439221 0.760358 0 -0.25487 
306 1 306 0.439173 0.800395 0 -0.0899258 
307 1 307 0.43913 0.840431 0 0.224732 
308 1 308 0.439072 0.880467 0 0.713052 
309 1 309 0.439015 0.920501 0 1.18917 
310 1 310 0.438964 0.960539 0 2.26556 
311 1 311 0.438916 1.00058 0 2.97651 
312 1 312 0.48 0 0 0 
313 1 313 0.479962 0.0399969 0 0.596664 
314 1 314 0.479921 0.0799968 0 0.78628 
315 1 315 0.479875 0.119998 0 0.649047 
316 1 316 0.479826 0.160002 0 0.219182 
317 1 317 0.479779 0.200008 0 -0.30576 
318 1 318 0.47973 0.240018 0 -0.597578 
319 1 319 0.479681 0.280032 0 -0.592429 
320 1 320 0.479629 0.320048 0 -0.486574 
321 1 321 0.479581 0.360067 0 -0.271642 
322 1 322 0.479535 0.400089 0 -0.0336302 
323 1 323 0.479498 0.440113 0 0.101438 
324 1 324 0.479462 0.480139 0 0.276603 
325 1 325 0.479425 0.52017 0 0.347529 
326 1 326 0.479384 0.560202 0 0.246268 
327 1 327 0.479342 0.600238 0 0.123761 
328 1 328 0.479291 0.640276 0 -0.077445 
329 1 329 0.479238 0.680316 0 -0.279713 
330 1 330 0.479188 0.720358 0 -0.279586 
331 1 331 0.479145 0.760399 0 -0.119537 
332 1 332 0.479097 0.800439 0 -0.0399631 
333 1 333 0.479048 0.840478 0 0.268744 
334 1 334 0.478991 0.880515 0 0.681219 
335 1 335 0.478939 0.920551 0 1.13778 
336 1 336 0.478884 0.960588 0 1.94948 
337 1 337 0.478833 1.00062 0 2.35858 
338 1 338 0.52 0 0 0 
339 1 339 0.519959 0.0399997 0 0.518128 
340 1 340 0.519912 0.0800013 0 0.661035 
341 1 341 0.519863 0.120004 0 0.469373 
342 1 342 0.519812 0.160009 0 0.0594264 
343 1 343 0.519758 0.200018 0 -0.433203 
344 1 344 0.519704 0.240031 0 -0.705208 
345 1 345 0.519652 0.280047 0 -0.646943 
346 1 346 0.519595 0.320067 0 -0.442358 
347 1 347 0.519545 0.360088 0 -0.108849 
348 1 348 0.519495 0.400111 0 0.193242 
349 1 349 0.519453 0.440137 0 0.306138 
350 1 350 0.519413 0.480165 0 0.386949 
351 1 351 0.519375 0.520198 0 0.40606 
352 1 352 0.519329 0.560233 0 0.236546 
353 1 353 0.519277 0.600273 0 0.0363511 
354 1 354 0.519224 0.640315 0 -0.138487 
355 1 355 0.519176 0.680358 0 -0.262845 
356 1 356 0.519127 0.720401 0 -0.167228 
357 1 357 0.519076 0.760444 0 0.000487691 
358 1 358 0.519027 0.800485 0 0.0942838 
359 1 359 0.51898 0.840527 0 0.418139 
360 1 360 0.51892 0.880566 0 0.793556 
361 1 361 0.518864 0.920603 0 1.26232 
362 1 362 0.518808 0.960641 0 1.71854 
363 1 363 0.51876 1.00068 0 1.7653 
364 1 364 0.56 0 0 0 
365 1 365 0.559954 0.0400021 0 0.312193 
366 1 366 0.559906 0.0800048 0 0.432907 
367 1 367 0.559854 0.120009 0 0.276188 
368 1 368 0.559796 0.160016 0 -0.0610204 
369 1 369 0.559737 0.200027 0 -0.477737 
370 1 370 0.559678 0.240043 0 -0.712272 
371 1 371 0.559622 0.280063 0 -0.629685 
372 1 372 0.559563 0.320086 0 -0.3618 
373 1 373 0.559508 0.36011 0 0.00873486 
374 1 374 0.559455 0.400135 0 0.282396 
375 1 375 0.559409 0.440163 0 0.34026 
376 1 376 0.559363 0.480193 0 0.281943 
377 1 377 0.559317 0.520227 0 0.176459 
378 1 378 0.559267 0.560264 0 -0.0881267 
379 1 379 0.559218 0.600304 0 -0.320552 
380 1 380 0.559159 0.640345 0 -0.407308 
381 1 381 0.5591 0.680388 0 -0.414843 
382 1 382 0.559046 0.720433 0 -0.200995 
383 1 383 0.558998 0.760478 0 0.0327398 
384 1 384 0.558948 0.800523 0 0.193308 
385 1 385 0.558895 0.84057 0 0.516054 
386 1 386 0.558839 0.880614 0 0.866902 
387 1 387 0.55879 0.920654 0 1.29068 
388 1 388 0.558733 0.960692 0 1.28699 
389 1 389 0.558684 1.00073 0 0.954255 
390 1 390 0.6 0 0 0 
391 1 391 0.599953 0.0400028 0 0.0802898 
392 1 392 0.5999 0.0800065 0 0.18136 
393 1 393 0.599844 0.120012 0 0.103733 
394 1 394 0.599782 0.160022 0 -0.133141 
395 1 395 0.599718 0.200035 0 -0.449987 
396 1 396 0.599653 0.240054 0 -0.657417 
397 1 397 0.599591 0.280077 0 -0.642414 
398 1 398 0.599529 0.320101 0 -0.387255 
399 1 399 0.599472 0.360128 0 -0.0136724 
400 1 400 0.599417 0.400154 0 0.219114 
401 1 401 0.599365 0.440183 0 0.235637 
402 1 402 0.599313 0.480215 0 0.00332388 
403 1 403 0.599265 0.520251 0 -0.289045 
404 1 404 0.599208 0.560291 0 -0.619604 
405 1 405 0.599148 0.600333 0 -0.809235 
406 1 406 0.599088 0.640379 0 -0.769103 
407 1 407 0.599037 0.680425 0 -0.65057 
408 1 408 0.598984 0.72047 0 -0.348148 
409 1 409 0.598929 0.760518 0 -0.0387767 
410 1 410 0.598876 0.800565 0 0.212868 
411 1 411 0.598826 0.840614 0 0.530145 
412 1 412 0.59877 0.88066 0 0.89172 
413 1 413 0.598717 0.920703 0 1.29577 
414 1 414 0.598664 0.960742 0 0.97822 
415 1 415 0.598621 1.00077 0 0.414347 
416 1 416 0.64 0 0 0 
417 1 417 0.639949 0.0400031 0 -0.128234 
418 1 418 0.639895 0.0800078 0 -0.0622393 
419 1 419 0.639836 0.120015 0 -0.0518043 
420 1 420 0.639768 0.160026 0 -0.166221 
421 1 421 0.639698 0.200042 0 -0.38804 
422 1 422 0.639628 0.240063 0 -0.59228 
423 1 423 0.639562 0.280088 0 -0.647197 
424 1 424 0.639497 0.320114 0 -0.439002 
425 1 425 0.639437 0.360143 0 -0.158077 
426 1 426 0.639377 0.400172 0 -0.0165247 
427 1 427 0.639321 0.440203 0 -0.0123637 
428 1 428 0.639263 0.480237 0 -0.319517 
429 1 429 0.639204 0.520275 0 -0.693358 
430 1 430 0.639142 0.560316 0 -1.06645 
431 1 431 0.639086 0.60036 0 -1.28792 
432 1 432 0.639022 0.640404 0 -1.20015 
433 1 433 0.638958 0.68045 0 -0.942466 
434 1 434 0.638899 0.720497 0 -0.525094 
435 1 435 0.638848 0.760547 0 -0.15089 
436 1 436 0.638793 0.800598 0 0.117797 
437 1 437 0.638738 0.840651 0 0.384826 
438 1 438 0.638687 0.880701 0 0.758971 
439 1 439 0.638643 0.920747 0 1.07829 
440 1 440 0.638594 0.960786 0 0.549526 
441 1 441 0.638552 1.00082 0 -0.097334 
442 1 442 0.68 0 0 0 
443 1 443 0.679947 0.0400026 0 -0.306647 
444 1 444 0.679889 0.0800085 0 -0.274002 
445 1 445 0.679825 0.120018 0 -0.200492 
446 1 446 0.679754 0.160031 0 -0.233107 
447 1 447 0.679679 0.200049 0 -0.363196 
448 1 448 0.679603 0.24007 0 -0.557187 
449 1 449 0.679532 0.280096 0 -0.707141 
450 1 450 0.679465 0.320124 0 -0.572743 
451 1 451 0.679401 0.360153 0 -0.341983 
452 1 452 0.679339 0.400182 0 -0.214728 
453 1 453 0.679276 0.440215 0 -0.199967 
454 1 454 0.679211 0.480251 0 -0.546525 
455 1 455 0.67915 0.520291 0 -0.936381 
456 1 456 0.679082 0.560336 0 -1.29228 
457 1 457 0.679013 0.600384 0 -1.49736 
458 1 458 0.678949 0.640433 0 -1.36134 
459 1 459 0.678895 0.680483 0 -1.05002 
460 1 460 0.678837 0.720532 0 -0.688653 
461 1 461 0.678777 0.760583 0 -0.389304 
462 1 462 0.678719 0.800635 0 -0.169181 
463 1 463 0.678668 0.840688 0 0.0373938 
464 1 464 0.678617 0.880739 0 0.393177 
465 1 465 0.67857 0.920786 0 0.612275 
466 1 466 0.678529 0.960825 0 0.123406 
467 1 467 0.678495 1.00086 0 -0.386594 
468 1 468 0.72 0 0 0 
469 1 469 0.719941 0.0400026 0 -0.395284 
470 1 470 0.719881 0.0800091 0 -0.432852 
471 1 471 0.719815 0.12002 0 -0.349711 
472 1 472 0.719738 0.160035 0 -0.323329 
473 1 473 0.719659 0.200055 0 -0.358177 
474 1 474 0.719578 0.240077 0 -0.508946 
475 1 475 0.719503 0.280104 0 -0.71949 
476 1 476 0.719433 0.320132 0 -0.631647 
477 1 477 0.719365 0.360162 0 -0.400765 
478 1 478 0.719298 0.400193 0 -0.242355 
479 1 479 0.719231 0.440228 0 -0.16516 
480 1 480 0.719159 0.480266 0 -0.458545 
481 1 481 0.719086 0.520309 0 -0.86136 
482 1 482 0.719013 0.560355 0 -1.25101 
483 1 483 0.718949 0.600404 0 -1.45732 
484 1 484 0.718881 0.640453 0 -1.34812 
485 1 485 0.718812 0.680504 0 -1.08472 
486 1 486 0.718749 0.720555 0 -0.841712 
487 1 487 0.718695 0.760609 0 -0.647702 
488 1 488 0.718634 0.800663 0 -0.500853 
489 1 489 0.718579 0.840718 0 -0.374873 
490 1 490 0.718533 0.88077 0 -0.0838236 
491 1 491 0.718497 0.920816 0 0.0142144 
492 1 492 0.71846 0.960856 0 -0.281515 
493 1 493 0.718426 1.00089 0 -0.524043 
494 1 494 0.76 0 0 0 
495 1 495 0.759937 0.0400023 0 -0.449524 
496 1 496 0.75987 0.0800105 0 -0.57471 
497 1 497 0.7598 0.120024 0 -0.492994 
498 1 498 0.75972 0.16004 0 -0.416443 
499 1 499 0.759637 0.200062 0 -0.378299 
500 1 500 0.759553 0.240085 0 -0.436092 
501 1 501 0.759474 0.280111 0 -0.596729 
502 1 502 0.7594 0.320138 0 -0.550863 
503 1 503 0.759329 0.360168 0 -0.378387 
504 1 504 0.759259 0.4002 0 -0.182621 
505 1 505 0.759184 0.440236 0 -0.0162873 
506 1 506 0.759106 0.480276 0 -0.220277 
507 1 507 0.759031 0.520321 0 -0.592001 
508 1 508 0.758952 0.56037 0 -0.979014 
509 1 509 0.758874 0.600423 0 -1.20457 
510 1 510 0.758805 0.640478 0 -1.20548 
511 1 511 0.758748 0.680533 0 -1.05246 
512 1 512 0.758686 0.720586 0 -0.979675 
513 1 513 0.758621 0.76064 0 -0.948352 
514 1 514 0.758559 0.800694 0 -0.913764 
515 1 515 0.758509 0.840746 0 -0.916285 
516 1 516 0.758462 0.880797 0 -0.721712 
517 1 517 0.758423 0.920843 0 -0.683433 
518 1 518 0.758394 0.960883 0 -0.689696 
519 1 519 0.758367 1.00092 0 -0.629999 
520 1 520 0.8 0 0 0 
521 1 521 0.799927 0.0400024 0 -0.459744 
522 1 522 0.799856 0.0800121 0 -0.693426 
523 1 523 0.799783 0.120028 0 -0.671489 
524 1 524 0.799699 0.160046 0 -0.518586 
525 1 525 0.799615 0.200069 0 -0.351129 
526 1 526 0.799527 0.240092 0 -0.342189 
527 1 527 0.799444 0.280118 0 -0.45547 
528 1 528 0.799367 0.320146 0 -0.384072 
529 1 529 0.799293 0.360177 0 -0.203974 
530 1 530 0.799217 0.40021 0 0.0112342 
531 1 531 0.799137 0.440248 0 0.176066 
532 1 532 0.799054 0.48029 0 0.0380642 
533 1 533 0.798966 0.520337 0 -0.268423 
534 1 534 0.798882 0.560388 0 -0.632847 
535 1 535 0.798809 0.600441 0 -0.873839 
536 1 536 0.798735 0.640494 0 -0.998995 
537 1 537 0.798661 0.680549 0 -0.979999 
538 1 538 0.798593 0.720604 0 -1.08724 
539 1 539 0.798537 0.76066 0 -1.19612 
540 1 540 0.798474 0.800715 0 -1.20277 
541 1 541 0.79842 0.840768 0 -1.2719 
542 1 542 0.798379 0.880818 0 -1.17866 
543 1 543 0.79835 0.920862 0 -1.22954 
544 1 544 0.798322 0.960903 0 -1.0283 
545 1 545 0.798294 1.00094 0 -0.733792 
546 1 546 0.84 0 0 0 
547 1 547 0.839919 0.0400032 0 -0.438723 
548 1 548 0.83984 0.0800141 0 -0.742343 
549 1 549 0.839762 0.120032 0 -0.793123 
550 1 550 0.839677 0.160052 0 -0.635761 
551 1 551 0.839589 0.200075 0 -0.370886 
552 1 552 0.8395 0.240099 0 -0.231078 
553 1 553 0.839416 0.280125 0 -0.232853 
554 1 554 0.839334 0.320152 0 -0.178896 
555 1 555 0.839254 0.360184 0 -0.0812946 
556 1 556 0.839175 0.400219 0 0.113066 
557 1 557 0.839089 0.440258 0 0.292539 
558 1 558 0.838999 0.480302 0 0.234283 
559 1 559 0.83891 0.520351 0 -0.0266138 
560 1 560 0.838819 0.560402 0 -0.37936 
561 1 561 0.838731 0.600459 0 -0.610148 
562 1 562 0.838655 0.640517 0 -0.814366 
563 1 563 0.838594 0.680576 0 -0.89031 
564 1 564 0.838527 0.720632 0 -1.13084 
565 1 565 0.838461 0.760687 0 -1.34838 
566 1 566 0.838399 0.80074 0 -1.36026 
567 1 567 0.838352 0.840789 0 -1.47828 
568 1 568 0.838309 0.880836 0 -1.50222 
569 1 569 0.838275 0.92088 0 -1.6165 
570 1 570 0.838252 0.960921 0 -1.27837 
571 1 571 0.838231 1.00096 0 -0.843925 
572 1 572 0.88 0 0 0 
573 1 573 0.879908 0.0400048 0 -0.401193 
574 1 574 0.879823 0.0800165 0 -0.792776 
575 1 575 0.87974 0.120035 0 -0.919666 
576 1 576 0.879652 0.160057 0 -0.736708 
577 1 577 0.879563 0.200081 0 -0.397594 
578 1 578 0.879473 0.240105 0 -0.175764 
579 1 579 0.879384 0.280131 0 -0.0914612 
580 1 580 0.879299 0.320159 0 -0.0545012 
581 1 581 0.879215 0.360192 0 -0.0393796 
582 1 582 0.879128 0.40023 0 0.0845928 
583 1 583 0.879037 0.440272 0 0.19995 
584 1 584 0.878942 0.480319 0 0.185356 
585 1 585 0.878841 0.52037 0 0.0408133 
586 1 586 0.878747 0.560422 0 -0.175973 
587 1 587 0.878664 0.600478 0 -0.308274 
588 1 588 0.878582 0.640532 0 -0.552752 
589 1 589 0.878503 0.680588 0 -0.725943 
590 1 590 0.87843 0.720645 0 -1.04408 
591 1 591 0.878374 0.760701 0 -1.28996 
592 1 592 0.878314 0.800754 0 -1.25292 
593 1 593 0.878263 0.840804 0 -1.38928 
594 1 594 0.878227 0.880851 0 -1.55471 
595 1 595 0.878201 0.920894 0 -1.77922 
596 1 596 0.878176 0.960935 0 -1.48296 
597 1 597 0.878154 1.00097 0 -1.05875 
598 1 598 0.92 0 0 0 
599 1 599 0.9199 0.0400053 0 -0.340251 
600 1 600 0.919805 0.0800181 0 -0.797171 
601 1 601 0.919716 0.120038 0 -1.03752 
602 1 602 0.919626 0.16006 0 -0.885734 
603 1 603 0.919535 0.200084 0 -0.507629 
604 1 604 0.919444 0.240108 0 -0.230059 
605 1 605 0.919353 0.280135 0 -0.0711562 
606 1 606 0.919261 0.320164 0 -0.0406792 
607 1 607 0.91917 0.360198 0 -0.109449 
608 1 608 0.919079 0.400238 0 -0.0812411 
609 1 609 0.918982 0.440283 0 -0.0377896 
610 1 610 0.918882 0.480332 0 0.00390133 
611 1 611 0.918782 0.520385 0 0.0378087 
612 1 612 0.918682 0.560438 0 0.0161655 
613 1 613 0.918583 0.600495 0 -0.0106723 
614 1 614 0.9185 0.640553 0 -0.241902 
615 1 615 0.918435 0.680612 0 -0.438505 
616 1 616 0.918365 0.720668 0 -0.770555 
617 1 617 0.918299 0.760723 0 -1.0172 
618 1 618 0.918242 0.800773 0 -0.930306 
619 1 619 0.918198 0.84082 0 -1.0585 
620 1 620 0.918159 0.880864 0 -1.35377 
621 1 621 0.918124 0.920907 0 -1.70422 
622 1 622 0.918103 0.960948 0 -1.59086 
623 1 623 0.918088 1.00098 0 -1.30282 
624 1 624 0.96 0 0 0 
625 1 625 0.959889 0.0400071 0 -0.287868 
626 1 626 0.959789 0.0800198 0 -0.795716 
627 1 627 0.959693 0.120038 0 -1.15118 
628 1 628 0.959598 0.16006 0 -1.09543 
629 1 629 0.959506 0.200085 0 -0.747754 
630 1 630 0.959412 0.240109 0 -0.406788 
631 1 631 0.959316 0.280136 0 -0.160176 
632 1 632 0.959221 0.320166 0 -0.140595 
633 1 633 0.959124 0.360203 0 -0.281737 
634 1 634 0.959023 0.400247 0 -0.334468 
635 1 635 0.958922 0.440296 0 -0.316296 
636 1 636 0.958818 0.480347 0 -0.190203 
637 1 637 0.958708 0.520403 0 0.0199266 
638 1 638 0.958606 0.560457 0 0.208982 
639 1 639 0.958516 0.600512 0 0.354587 
640 1 640 0.958428 0.640565 0 0.236094 
641 1 641 0.958342 0.68062 0 0.0366503 
642 1 642 0.958267 0.720675 0 -0.295955 
643 1 643 0.958212 0.760729 0 -0.556543 
644 1 644 0.958157 0.800781 0 -0.498418 
645 1 645 0.958108 0.840829 0 -0.617903 
646 1 646 0.958075 0.880873 0 -1.01712 
647 1 647 0.958049 0.920916 0 -1.49553 
648 1 648 0.958024 0.960957 0 -1.6007 
649 1 649 0.958007 1.00099 0 -1.48737 
650 1 650 1 0 0 0 
651 1 651 0.999883 0.0400076 0 -0.240792 
652 1 652 0.999772 0.08002 0 -0.813762 
653 1 653 0.999668 0.120038 0 -1.25436 
654 1 654 0.99957 0.160059 0 -1.2698 
655 1 655 0.999474 0.200082 0 -1.01317 
656 1 656 0.999377 0.240106 0 -0.681442 
657 1 657 0.999278 0.280134 0 -0.359082 
658 1 658 0.999175 0.320166 0 -0.267172 
659 1 659 0.99907 0.360205 0 -0.389364 
660 1 660 0.998965 0.40025 0 -0.534853 
661 1 661 0.998858 0.440302 0 -0.590158 
662 1 662 0.99875 0.480357 0 -0.419731 
663 1 663 0.998644 0.520413 0 -0.0180082 
664 1 664 0.998539 0.560468 0 0.433355 
665 1 665 0.998434 0.600525 0 0.750237 
666 1 666 0.998345 0.640582 0 0.706193 
667 1 667 0.998275 0.680638 0 0.462837 
668 1 668 0.998204 0.720692 0 0.173777 
669 1 669 0.998136 0.760744 0 -0.0223917 
670 1 670 0.998085 0.800793 0 0.0247808 
671 1 671 0.998044 0.840838 0 -0.1009 
672 1 672 0.998004 0.880881 0 -0.649788 
673 1 673 0.997969 0.920924 0 -1.23813 
674 1 674 0.997948 0.960965 0 -1.5034 
675 1 675 0.997939 1.001 0 -1.55373 
676 1 676 1.04 0 0 0 
677 1 677 1.03987 0.0400079 0 -0.221392 
678 1 678 1.03976 0.0800189 0 -0.826027 
679 1 679 1.03964 0.120035 0 -1.37732 
680 1 680 1.03954 0.160055 0 -1.51922 
681 1 681 1.03944 0.200077 0 -1.31859 
682 1 682 1.03934 0.240101 0 -0.908683 
683 1 683 1.03924 0.28013 0 -0.502628 
684 1 684 1.03913 0.320164 0 -0.380896 
685 1 685 1.03902 0.360206 0 -0.466706 
686 1 686 1.0389 0.400254 0 -0.642342 
687 1 687 1.03879 0.44031 0 -0.720058 
688 1 688 1.03868 0.480366 0 -0.511174 
689 1 689 1.03857 0.520425 0 0.0185157 
690 1 690 1.03846 0.56048 0 0.641723 
691 1 691 1.03837 0.600534 0 1.08266 
692 1 692 1.03827 0.640585 0 1.16201 
693 1 693 1.03818 0.680637 0 0.935457 
694 1 694 1.03811 0.72069 0 0.71021 
695 1 695 1.03805 0.760743 0 0.544905 
696 1 696 1.038 0.800793 0 0.520004 
697 1 697 1.03795 0.84084 0 0.422858 
698 1 698 1.03792 0.880884 0 -0.168985 
699 1 699 1.03789 0.920928 0 -0.814227 
700 1 700 1.03787 0.960968 0 -1.26365 
701 1 701 1.03786 1.00101 0 -1.50476 
702 1 702 1.08 0 0 0 
703 1 703 1.07987 0.0400065 0 -0.255432 
704 1 704 1.07974 0.0800168 0 -0.861074 
705 1 705 1.07962 0.120032 0 -1.43272 
706 1 706 1.07951 0.160049 0 -1.62864 
707 1 707 1.07941 0.20007 0 -1.51473 
708 1 708 1.0793 0.240094 0 -1.11221 
709 1 709 1.07919 0.280123 0 -0.622718 
710 1 710 1.07908 0.320159 0 -0.383308 
711 1 711 1.07896 0.360202 0 -0.380706 
712 1 712 1.07884 0.400251 0 -0.601817 
713 1 713 1.07872 0.440307 0 -0.734409 
714 1 714 1.0786 0.480366 0 -0.555916 
715 1 715 1.0785 0.520425 0 0.00933366 
716 1 716 1.07839 0.560481 0 0.767395 
717 1 717 1.07828 0.600537 0 1.32866 
718 1 718 1.07819 0.640592 0 1.52209 
719 1 719 1.07811 0.680646 0 1.30301 
720 1 720 1.07804 0.720698 0 1.11649 
721 1 721 1.07797 0.760748 0 0.975936 
722 1 722 1.07792 0.800796 0 0.865128 
723 1 723 1.07788 0.840842 0 0.766242 
724 1 724 1.07784 0.880886 0 0.185196 
725 1 725 1.07781 0.920931 0 -0.415427 
726 1 726 1.07779 0.960972 0 -0.953975 
727 1 727 1.07779 1.00101 0 -1.3339 
728 1 728 1.12 0 0 0 
729 1 729 1.11986 0.0400052 0 -0.299988 
730 1 730 1.11973 0.0800139 0 -0.883187 
731 1 731 1.1196 0.120026 0 -1.42802 
732 1 732 1.11948 0.160042 0 -1.63027 
733 1 733 1.11937 0.200062 0 -1.5521 
734 1 734 1.11926 0.240086 0 -1.14185 
735 1 735 1.11914 0.280116 0 -0.616155 
736 1 736 1.11902 0.320152 0 -0.298762 
737 1 737 1.1189 0.360196 0 -0.195468 
738 1 738 1.11877 0.400247 0 -0.440785 
739 1 739 1.11865 0.440304 0 -0.627049 
740 1 740 1.11853 0.480362 0 -0.469146 
741 1 741 1.11841 0.520422 0 0.111814 
742 1 742 1.1183 0.56048 0 0.931341 
743 1 743 1.11821 0.600532 0 1.50924 
744 1 744 1.11811 0.640582 0 1.73197 
745 1 745 1.11802 0.680632 0 1.54282 
746 1 746 1.11794 0.720684 0 1.46284 
747 1 747 1.11788 0.760736 0 1.40799 
748 1 748 1.11783 0.800786 0 1.22955 
749 1 749 1.11779 0.840836 0 1.10608 
750 1 750 1.11775 0.880882 0 0.575569 
751 1 751 1.11773 0.920928 0 0.0427923 
752 1 752 1.11771 0.96097 0 -0.543363 
753 1 753 1.1177 1.00101 0 -1.00131 
754 1 754 1.16 0 0 0 
755 1 755 1.15986 0.0400032 0 -0.362762 
756 1 756 1.15971 0.0800104 0 -0.883841 
757 1 757 1.15958 0.120021 0 -1.34568 
758 1 758 1.15945 0.160035 0 -1.53378 
759 1 759 1.15933 0.200054 0 -1.47619 
760 1 760 1.15922 0.240077 0 -1.03659 
761 1 761 1.15909 0.280107 0 -0.476417 
762 1 762 1.15897 0.320143 0 -0.143544 
763 1 763 1.15884 0.360187 0 -0.00509753 
764 1 764 1.1587 0.400235 0 -0.240273 
765 1 765 1.15857 0.440291 0 -0.432056 
766 1 766 1.15845 0.480349 0 -0.324247 
767 1 767 1.15834 0.520407 0 0.180861 
768 1 768 1.15823 0.560463 0 0.993221 
769 1 769 1.15812 0.600519 0 1.60042 
770 1 770 1.15803 0.640575 0 1.9176 
771 1 771 1.15795 0.680628 0 1.79908 
772 1 772 1.15788 0.720679 0 1.70278 
773 1 773 1.1578 0.76073 0 1.60829 