ITEM: TIMESTEP
0
ITEM: NUMBER OF ATOMS
7127
ITEM: BOX BOUNDS sm sm sm
0 4
0 2
0 0
ITEM: ATOMS id type tag x y z vx 
0 1 0 0 0 0 0 
1 1 1 0 0.04 0 0 
2 1 2 0 0.08 0 0 
3 1 3 0 0.12 0 0 
4 1 4 0 0.16 0 0 
5 1 5 0 0.2 0 0 
6 1 6 0 0.24 0 0 
7 1 7 0 0.28 0 0 
8 1 8 0 0.32 0 0 
9 1 9 0 0.36 0 0 
10 1 10 0 0.4 0 0 
11 1 11 0 0.44 0 0 
12 1 12 0 0.48 0 0 
13 1 13 0 0.52 0 0 
14 1 14 0 0.56 0 0 
15 1 15 0 0.6 0 0 
16 1 16 0 0.64 0 0 
17 1 17 0 0.68 0 0 
18 1 18 0 0.72 0 0 
19 1 19 0 0.76 0 0 
20 1 20 0 0.8 0 0 
21 1 21 0 0.84 0 0 
22 1 22 0 0.88 0 0 
23 1 23 0 0.92 0 0 
24 1 24 0 0.96 0 0 
25 1 25 0 1 0 0 
26 1 26 0.04 0 0 0 
27 1 27 0.0399813 0.0399889 0 -1.44641 
28 1 28 0.0399749 0.0799775 0 -1.30444 
29 1 29 0.0399734 0.119971 0 -0.278812 
30 1 30 0.0399714 0.159969 0 0.427704 
31 1 31 0.0399705 0.199973 0 0.867166 
32 1 32 0.0399728 0.239983 0 1.279 
33 1 33 0.0399777 0.279987 0 1.83036 
34 1 34 0.039979 0.319991 0 2.49524 
35 1 35 0.0399826 0.359991 0 3.06394 
36 1 36 0.0399779 0.399994 0 3.1331 
37 1 37 0.0399777 0.439998 0 3.02196 
38 1 38 0.0399689 0.480005 0 2.53451 
39 1 39 0.0399714 0.52001 0 1.99056 
40 1 40 0.0399599 0.560018 0 1.51332 
41 1 41 0.0399626 0.600021 0 0.976605 
42 1 42 0.0399539 0.640027 0 0.855008 
43 1 43 0.0399556 0.680026 0 0.654753 
44 1 44 0.0399457 0.72003 0 0.330804 
45 1 45 0.0399516 0.760023 0 0.179169 
46 1 46 0.0399342 0.800028 0 0.00437987 
47 1 47 0.0399369 0.840027 0 -0.108567 
48 1 48 0.0399216 0.88004 0 0.341592 
49 1 49 0.0399169 0.920056 0 0.529661 
50 1 50 0.0399163 0.960081 0 1.07176 
51 1 51 0.0398228 1.00017 0 1.72828 
52 1 52 0.08 0 0 0 
53 1 53 0.0799717 0.0399819 0 -2.76251 
54 1 54 0.0799578 0.0799659 0 -2.05144 
55 1 55 0.0799525 0.11996 0 -0.0294776 
56 1 56 0.0799419 0.159957 0 0.792769 
57 1 57 0.0799346 0.199963 0 1.02279 
58 1 58 0.0799379 0.239977 0 1.53268 
59 1 59 0.0799502 0.279983 0 2.57462 
60 1 60 0.0799557 0.319989 0 3.88843 
61 1 61 0.0799592 0.359989 0 5.08179 
62 1 62 0.0799497 0.399992 0 5.46086 
63 1 63 0.0799461 0.439998 0 5.24285 
64 1 64 0.0799312 0.480005 0 4.29474 
65 1 65 0.0799311 0.520017 0 3.16294 
66 1 66 0.0799162 0.560026 0 2.3184 
67 1 67 0.0799145 0.600038 0 1.53762 
68 1 68 0.0799063 0.640047 0 1.49345 
69 1 69 0.0799012 0.680053 0 1.35835 
70 1 70 0.0798985 0.720056 0 1.19305 
71 1 71 0.0798885 0.76006 0 0.914939 
72 1 72 0.0798764 0.800061 0 0.352154 
73 1 73 0.0798574 0.840081 0 0.226153 
74 1 74 0.0798403 0.880095 0 1.15369 
75 1 75 0.0798182 0.920139 0 1.88882 
76 1 76 0.0797884 0.960191 0 2.31928 
77 1 77 0.0797325 1.00023 0 2.81336 
78 1 78 0.12 0 0 0 
79 1 79 0.119964 0.0399785 0 -3.16642 
80 1 80 0.119947 0.0799669 0 -2.32747 
81 1 81 0.119935 0.119961 0 -0.0922045 
82 1 82 0.119914 0.159959 0 0.653684 
83 1 83 0.119898 0.199966 0 0.656665 
84 1 84 0.1199 0.239975 0 1.08472 
85 1 85 0.119917 0.279983 0 2.28827 
86 1 86 0.119926 0.319987 0 4.04086 
87 1 87 0.119928 0.35999 0 5.78332 
88 1 88 0.119916 0.399992 0 6.54643 
89 1 89 0.119906 0.44 0 6.22062 
90 1 90 0.119888 0.480006 0 5.00737 
91 1 91 0.11988 0.520022 0 3.52807 
92 1 92 0.119866 0.560034 0 2.44186 
93 1 93 0.119859 0.60005 0 1.80876 
94 1 94 0.119852 0.640064 0 2.01316 
95 1 95 0.119844 0.680074 0 2.16412 
96 1 96 0.119843 0.720085 0 2.28369 
97 1 97 0.119828 0.760095 0 2.11668 
98 1 98 0.119803 0.800111 0 1.35452 
99 1 99 0.119777 0.840133 0 1.23862 
100 1 100 0.119744 0.880169 0 2.42444 
101 1 101 0.11971 0.920212 0 3.5014 
102 1 102 0.119683 0.960257 0 3.63325 
103 1 103 0.11965 1.0003 0 3.60994 
104 1 104 0.16 0 0 0 
105 1 105 0.159963 0.0399852 0 -2.08517 
106 1 106 0.159939 0.0799752 0 -1.65341 
107 1 107 0.159915 0.119967 0 -0.1181 
108 1 108 0.159885 0.159967 0 0.341332 
109 1 109 0.159864 0.199972 0 0.0318855 
110 1 110 0.159864 0.239976 0 0.188035 
111 1 111 0.159879 0.279981 0 1.32516 
112 1 112 0.159889 0.319986 0 3.30434 
113 1 113 0.159889 0.35999 0 5.33819 
114 1 114 0.159876 0.399995 0 6.34947 
115 1 115 0.159858 0.440002 0 6.03731 
116 1 116 0.159839 0.480013 0 4.75684 
117 1 117 0.159824 0.520026 0 3.26829 
118 1 118 0.159808 0.560045 0 2.10878 
119 1 119 0.159801 0.600061 0 1.80531 
120 1 120 0.15979 0.64008 0 2.38857 
121 1 121 0.159785 0.680096 0 2.96535 
122 1 122 0.159776 0.720114 0 3.44515 
123 1 123 0.159759 0.760133 0 3.44943 
124 1 124 0.159726 0.800157 0 3.00289 
125 1 125 0.159688 0.840189 0 2.99925 
126 1 126 0.159647 0.880226 0 4.01236 
127 1 127 0.159612 0.920269 0 4.93551 
128 1 128 0.159589 0.960309 0 4.81341 
129 1 129 0.159556 1.00036 0 4.56322 
130 1 130 0.2 0 0 0 
131 1 131 0.199968 0.0399929 0 -0.437851 
132 1 132 0.199932 0.0799836 0 -0.299152 
133 1 133 0.199896 0.119975 0 0.257034 
134 1 134 0.199861 0.159978 0 0.0917627 
135 1 135 0.199835 0.199979 0 -0.552575 
136 1 136 0.199828 0.239977 0 -0.465635 
137 1 137 0.199839 0.279982 0 0.577924 
138 1 138 0.199848 0.319988 0 2.45952 
139 1 139 0.199846 0.359995 0 4.43768 
140 1 140 0.199833 0.400003 0 5.50122 
141 1 141 0.19981 0.440009 0 5.30141 
142 1 142 0.199786 0.480024 0 4.06458 
143 1 143 0.199768 0.520037 0 2.71456 
144 1 144 0.199749 0.560057 0 1.73957 
145 1 145 0.199743 0.600078 0 1.74872 
146 1 146 0.199732 0.640096 0 2.64734 
147 1 147 0.199726 0.68012 0 3.62416 
148 1 148 0.199713 0.72014 0 4.51882 
149 1 149 0.199687 0.760171 0 4.75936 
150 1 150 0.199651 0.8002 0 4.74261 
151 1 151 0.199603 0.840238 0 5.00666 
152 1 152 0.199559 0.880275 0 5.86779 
153 1 153 0.199522 0.920311 0 6.57743 
154 1 154 0.199495 0.960355 0 6.23343 
155 1 155 0.199469 1.0004 0 5.8646 
156 1 156 0.24 0 0 0 
157 1 157 0.239968 0.0399936 0 1.2281 
158 1 158 0.239923 0.0799877 0 1.26938 
159 1 159 0.239879 0.119985 0 0.722975 
160 1 160 0.239839 0.159989 0 0.0386173 
161 1 161 0.239809 0.199985 0 -0.318637 
162 1 162 0.239797 0.239983 0 0.00563088 
163 1 163 0.239801 0.279989 0 0.751042 
164 1 164 0.239803 0.319995 0 2.23057 
165 1 165 0.239799 0.360006 0 3.89638 
166 1 166 0.239786 0.400018 0 4.79814 
167 1 167 0.239761 0.440026 0 4.67072 
168 1 168 0.239736 0.480041 0 3.62478 
169 1 169 0.239714 0.520056 0 2.50496 
170 1 170 0.239694 0.560074 0 1.75869 
171 1 171 0.239686 0.600097 0 1.97497 
172 1 172 0.239675 0.640117 0 2.9566 
173 1 173 0.239667 0.680142 0 4.08867 
174 1 174 0.239648 0.720167 0 5.21339 
175 1 175 0.239617 0.760201 0 5.88969 
176 1 176 0.239573 0.80024 0 6.47173 
177 1 177 0.239524 0.840276 0 6.97187 
178 1 178 0.239481 0.880315 0 7.71753 
179 1 179 0.239441 0.92035 0 8.26051 
180 1 180 0.239408 0.960388 0 7.70539 
181 1 181 0.239381 1.00043 0 7.19238 
182 1 182 0.28 0 0 0 
183 1 183 0.279963 0.0399915 0 2.54546 
184 1 184 0.279912 0.0799889 0 2.4385 
185 1 185 0.27986 0.119992 0 1.09324 
186 1 186 0.279817 0.159993 0 0.551556 
187 1 187 0.279789 0.199991 0 0.864399 
188 1 188 0.279773 0.239989 0 1.35893 
189 1 189 0.279764 0.279995 0 1.89655 
190 1 190 0.279761 0.320003 0 3.02467 
191 1 191 0.279756 0.360019 0 4.14057 
192 1 192 0.279743 0.400033 0 4.68665 
193 1 193 0.279718 0.440044 0 4.6219 
194 1 194 0.27969 0.48006 0 3.8137 
195 1 195 0.279666 0.520074 0 2.97096 
196 1 196 0.279645 0.560096 0 2.41209 
197 1 197 0.279637 0.600116 0 2.58925 
198 1 198 0.279626 0.640139 0 3.43097 
199 1 199 0.279615 0.680166 0 4.51703 
200 1 200 0.279589 0.720196 0 5.61763 
201 1 201 0.279553 0.760233 0 6.65874 
202 1 202 0.279505 0.80027 0 7.94754 
203 1 203 0.279452 0.840311 0 8.75769 
204 1 204 0.27941 0.880346 0 9.29911 
205 1 205 0.279368 0.920382 0 9.58208 
206 1 206 0.279326 0.96042 0 9.04025 
207 1 207 0.279297 1.00046 0 8.60871 
208 1 208 0.32 0 0 0 
209 1 209 0.319956 0.0399916 0 2.93741 
210 1 210 0.319897 0.0799889 0 2.73153 
211 1 211 0.319841 0.119992 0 1.357 
212 1 212 0.319801 0.159991 0 1.40126 
213 1 213 0.319776 0.199991 0 2.36331 
214 1 214 0.319752 0.239988 0 3.25276 
215 1 215 0.319731 0.279994 0 3.94464 
216 1 216 0.319722 0.320007 0 4.5986 
217 1 217 0.319713 0.360024 0 4.93279 
218 1 218 0.319699 0.400042 0 5.11913 
219 1 219 0.319675 0.440057 0 5.1565 
220 1 220 0.319646 0.480076 0 4.65117 
221 1 221 0.319619 0.520091 0 4.09089 
222 1 222 0.319597 0.560113 0 3.77027 
223 1 223 0.319585 0.600136 0 3.77088 
224 1 224 0.319574 0.640159 0 4.10424 
225 1 225 0.319559 0.68019 0 4.92598 
226 1 226 0.319526 0.720222 0 5.86179 
227 1 227 0.319487 0.760264 0 7.09367 
228 1 228 0.319437 0.800302 0 8.92588 
229 1 229 0.319387 0.84034 0 10.1448 
230 1 230 0.319345 0.880376 0 10.609 
231 1 231 0.3193 0.920409 0 10.5858 
232 1 232 0.319253 0.960442 0 10.2654 
233 1 233 0.31922 1.00048 0 10.1297 
234 1 234 0.36 0 0 0 
235 1 235 0.359946 0.0399914 0 2.47539 
236 1 236 0.359882 0.0799868 0 2.32593 
237 1 237 0.359826 0.119989 0 1.36504 
238 1 238 0.35979 0.159986 0 1.98412 
239 1 239 0.359764 0.199985 0 3.62534 
240 1 240 0.359734 0.239985 0 5.10795 
241 1 241 0.359706 0.27999 0 5.89936 
242 1 242 0.359689 0.320006 0 6.03026 
243 1 243 0.359675 0.360023 0 5.83712 
244 1 244 0.359659 0.400044 0 5.84842 
245 1 245 0.359635 0.440065 0 5.96338 
246 1 246 0.359605 0.480083 0 5.9332 
247 1 247 0.359573 0.520104 0 5.79301 
248 1 248 0.359552 0.560125 0 5.59095 
249 1 249 0.359536 0.600149 0 5.4429 
250 1 250 0.359522 0.640178 0 5.19541 
251 1 251 0.359504 0.680211 0 5.48308 
252 1 252 0.359465 0.720248 0 6.18786 
253 1 253 0.359423 0.76029 0 7.5169 
254 1 254 0.359373 0.800331 0 9.63902 
255 1 255 0.359325 0.840368 0 11.1 
256 1 256 0.359283 0.8804 0 11.4541 
257 1 257 0.359238 0.920432 0 11.2421 
258 1 258 0.359187 0.96046 0 11.3384 
259 1 259 0.359152 1.00049 0 11.5874 
260 1 260 0.4 0 0 0 
261 1 261 0.399936 0.039991 0 1.41909 
262 1 262 0.39987 0.0799863 0 1.34323 
263 1 263 0.399816 0.119987 0 0.992489 
264 1 264 0.399779 0.159982 0 2.16454 
265 1 265 0.399753 0.199981 0 4.27479 
266 1 266 0.39972 0.239983 0 6.04382 
267 1 267 0.399683 0.279987 0 6.85748 
268 1 268 0.399656 0.320001 0 6.79652 
269 1 269 0.399635 0.360019 0 6.30717 
270 1 270 0.399617 0.400041 0 6.17659 
271 1 271 0.39959 0.440066 0 6.54084 
272 1 272 0.399559 0.480086 0 7.13171 
273 1 273 0.399525 0.520109 0 7.6071 
274 1 274 0.399499 0.560132 0 7.62802 
275 1 275 0.399477 0.600158 0 7.25355 
276 1 276 0.399458 0.64019 0 6.54509 
277 1 277 0.399434 0.680229 0 6.30654 
278 1 278 0.399393 0.72027 0 6.63629 
279 1 279 0.399351 0.760313 0 7.9061 
280 1 280 0.399306 0.800352 0 10.0839 
281 1 281 0.399265 0.840389 0 11.6932 
282 1 282 0.399224 0.880419 0 11.9904 
283 1 283 0.399182 0.92045 0 11.7914 
284 1 284 0.399131 0.960474 0 12.3995 
285 1 285 0.399094 1.0005 0 12.9713 
286 1 286 0.44 0 0 0 
287 1 287 0.439928 0.0399932 0 0.127104 
288 1 288 0.439862 0.079989 0 0.103563 
289 1 289 0.439809 0.119986 0 0.428642 
290 1 290 0.439772 0.159979 0 1.93527 
291 1 291 0.439743 0.199978 0 3.99866 
292 1 292 0.439704 0.23998 0 5.75567 
293 1 293 0.43966 0.279984 0 6.67746 
294 1 294 0.439626 0.319995 0 6.57126 
295 1 295 0.439598 0.360012 0 5.93609 
296 1 296 0.439573 0.400034 0 5.90972 
297 1 297 0.439545 0.44006 0 6.81001 
298 1 298 0.439513 0.480084 0 8.0929 
299 1 299 0.439477 0.520108 0 9.17532 
300 1 300 0.439449 0.560132 0 9.68439 
301 1 301 0.43942 0.600163 0 9.27057 
302 1 302 0.439396 0.640198 0 8.12375 
303 1 303 0.439365 0.68024 0 7.49566 
304 1 304 0.439321 0.720287 0 7.51607 
305 1 305 0.439281 0.760332 0 8.53616 
306 1 306 0.439241 0.800371 0 10.482 
307 1 307 0.439205 0.840407 0 12.0647 
308 1 308 0.439166 0.880435 0 12.3783 
309 1 309 0.439129 0.920466 0 12.3629 
310 1 310 0.439082 0.960488 0 13.3373 
311 1 311 0.439047 1.00051 0 14.0343 
312 1 312 0.48 0 0 0 
313 1 313 0.479922 0.039996 0 -0.962975 
314 1 314 0.479857 0.0799913 0 -0.851192 
315 1 315 0.479804 0.119984 0 0.0500826 
316 1 316 0.479762 0.159977 0 1.50073 
317 1 317 0.479727 0.199976 0 3.06373 
318 1 318 0.479685 0.239978 0 4.55451 
319 1 319 0.479638 0.279981 0 5.44531 
320 1 320 0.479597 0.31999 0 5.31328 
321 1 321 0.479559 0.360003 0 4.87936 
322 1 322 0.479527 0.400025 0 5.21046 
323 1 323 0.479499 0.440052 0 6.54952 
324 1 324 0.479466 0.480076 0 8.56095 
325 1 325 0.479428 0.520104 0 10.2975 
326 1 326 0.479395 0.560129 0 11.1806 
327 1 327 0.479357 0.600163 0 10.9439 
328 1 328 0.479321 0.640203 0 9.66022 
329 1 329 0.479284 0.680249 0 8.72224 
330 1 330 0.479241 0.720299 0 8.56015 
331 1 331 0.479204 0.760346 0 9.31632 
332 1 332 0.479173 0.800386 0 10.8197 
333 1 333 0.479144 0.840424 0 12.2272 
334 1 334 0.479109 0.880452 0 12.6435 
335 1 335 0.479077 0.920484 0 12.9345 
336 1 336 0.479038 0.960504 0 14.056 
337 1 337 0.479009 1.00052 0 14.6707 
338 1 338 0.52 0 0 0 
339 1 339 0.519921 0.0399969 0 -1.59818 
340 1 340 0.519856 0.0799906 0 -1.25939 
341 1 341 0.519801 0.11998 0 0.0444248 
342 1 342 0.519753 0.159974 0 1.18937 
343 1 343 0.519709 0.199972 0 2.02907 
344 1 344 0.519664 0.239974 0 2.97865 
345 1 345 0.519615 0.279976 0 3.65039 
346 1 346 0.519567 0.319982 0 3.62195 
347 1 347 0.519522 0.359994 0 3.54907 
348 1 348 0.519485 0.400014 0 4.24092 
349 1 349 0.519453 0.440041 0 5.91313 
350 1 350 0.519422 0.480066 0 8.4708 
351 1 351 0.519385 0.520096 0 10.8107 
352 1 352 0.519348 0.560124 0 12.0739 
353 1 353 0.519304 0.60016 0 12.1024 
354 1 354 0.519259 0.640203 0 11.0331 
355 1 355 0.519214 0.680253 0 10.0524 
356 1 356 0.51917 0.720306 0 9.73128 
357 1 357 0.519136 0.760355 0 10.1597 
358 1 358 0.519109 0.800397 0 11.0893 
359 1 359 0.519085 0.840438 0 12.2114 
360 1 360 0.519053 0.880468 0 12.837 
361 1 361 0.519027 0.920502 0 13.5121 
362 1 362 0.518999 0.960522 0 14.6194 
363 1 363 0.518981 1.00054 0 15.0465 
364 1 364 0.56 0 0 0 
365 1 365 0.559921 0.0399947 0 -1.70929 
366 1 366 0.559855 0.079986 0 -1.04827 
367 1 367 0.559797 0.119973 0 0.528427 
368 1 368 0.559741 0.159966 0 1.27953 
369 1 369 0.559688 0.199962 0 1.32876 
370 1 370 0.559639 0.239964 0 1.60801 
371 1 371 0.55959 0.279967 0 1.98107 
372 1 372 0.559538 0.319971 0 2.09944 
373 1 373 0.559487 0.359983 0 2.37055 
374 1 374 0.559444 0.400001 0 3.35447 
375 1 375 0.55941 0.440026 0 5.26499 
376 1 376 0.55938 0.480054 0 8.00854 
377 1 377 0.559342 0.520084 0 10.5678 
378 1 378 0.559301 0.560115 0 12.1677 
379 1 379 0.559245 0.600154 0 12.5518 
380 1 380 0.559189 0.640199 0 11.8302 
381 1 381 0.559136 0.680253 0 11.0725 
382 1 382 0.559093 0.720308 0 10.8162 
383 1 383 0.559062 0.760359 0 11.0003 
384 1 384 0.559042 0.800405 0 11.3667 
385 1 385 0.559024 0.840448 0 12.1557 
386 1 386 0.558997 0.880482 0 12.9924 
387 1 387 0.558978 0.920518 0 13.973 
388 1 388 0.558964 0.960539 0 14.9158 
389 1 389 0.558957 1.00055 0 15.1224 
390 1 390 0.6 0 0 0 
391 1 391 0.599924 0.039989 0 -1.25031 
392 1 392 0.599857 0.0799765 0 -0.195592 
393 1 393 0.599794 0.11996 0 1.48882 
394 1 394 0.59973 0.159953 0 1.85228 
395 1 395 0.599667 0.199948 0 1.22794 
396 1 396 0.599615 0.23995 0 0.833529 
397 1 397 0.599565 0.279954 0 0.792171 
398 1 398 0.59951 0.319958 0 0.983966 
399 1 399 0.599453 0.35997 0 1.62614 
400 1 400 0.599406 0.399986 0 2.83172 
401 1 401 0.59937 0.440009 0 4.68236 
402 1 402 0.599339 0.480037 0 7.28949 
403 1 403 0.599302 0.520069 0 9.79299 
404 1 404 0.599259 0.560102 0 11.5267 
405 1 405 0.599199 0.600144 0 12.378 
406 1 406 0.599134 0.640191 0 12.3107 
407 1 407 0.599074 0.680246 0 11.9568 
408 1 408 0.599031 0.7203 0 11.8284 
409 1 409 0.598999 0.760355 0 11.8107 
410 1 410 0.59898 0.800403 0 11.6405 
411 1 411 0.598964 0.840451 0 12.0803 
412 1 412 0.598942 0.880489 0 13.0982 
413 1 413 0.598929 0.920526 0 14.3041 
414 1 414 0.598929 0.960549 0 15.0944 
415 1 415 0.598936 1.00057 0 15.1637 
416 1 416 0.64 0 0 0 
417 1 417 0.639924 0.0399812 0 -0.495366 
418 1 418 0.639856 0.0799641 0 0.880555 
419 1 419 0.639789 0.119946 0 2.50458 
420 1 420 0.639717 0.159937 0 2.59136 
421 1 421 0.639646 0.19993 0 1.54671 
422 1 422 0.639589 0.239932 0 0.601165 
423 1 423 0.639538 0.279937 0 0.201648 
424 1 424 0.63948 0.319943 0 0.51214 
425 1 425 0.639421 0.359954 0 1.48788 
426 1 426 0.639369 0.399969 0 2.81841 
427 1 427 0.639328 0.439991 0 4.40529 
428 1 428 0.639297 0.480018 0 6.57267 
429 1 429 0.639258 0.52005 0 8.7868 
430 1 430 0.639208 0.560086 0 10.4979 
431 1 431 0.63914 0.600129 0 11.7335 
432 1 432 0.639068 0.640176 0 12.4002 
433 1 433 0.639002 0.680231 0 12.608 
434 1 434 0.638959 0.720284 0 12.7179 
435 1 435 0.63893 0.76034 0 12.6232 
436 1 436 0.638913 0.800391 0 12.07 
437 1 437 0.638902 0.840443 0 12.1932 
438 1 438 0.638887 0.880485 0 13.2579 
439 1 439 0.638882 0.920523 0 14.4938 
440 1 440 0.638894 0.960549 0 15.125 
441 1 441 0.638911 1.00057 0 15.1441 
442 1 442 0.68 0 0 0 
443 1 443 0.679924 0.0399729 0 0.398925 
444 1 444 0.679854 0.079951 0 1.93223 
445 1 445 0.679782 0.119931 0 3.28822 
446 1 446 0.679704 0.159919 0 3.19196 
447 1 447 0.679626 0.199911 0 2.01119 
448 1 448 0.679564 0.239911 0 0.730414 
449 1 449 0.679509 0.279916 0 0.0830386 
450 1 450 0.679448 0.319925 0 0.527709 
451 1 451 0.679387 0.359937 0 1.77796 
452 1 452 0.679332 0.39995 0 3.22529 
453 1 453 0.679286 0.43997 0 4.55563 
454 1 454 0.679251 0.479995 0 6.12601 
455 1 455 0.67921 0.520027 0 7.83157 
456 1 456 0.679158 0.560065 0 9.44437 
457 1 457 0.679089 0.60011 0 11.075 
458 1 458 0.679015 0.640155 0 12.4932 
459 1 459 0.678946 0.680208 0 13.2963 
460 1 460 0.678902 0.720258 0 13.6392 
461 1 461 0.67887 0.760314 0 13.4851 
462 1 462 0.678851 0.800367 0 12.6559 
463 1 463 0.678841 0.840421 0 12.4936 
464 1 464 0.678832 0.880468 0 13.4559 
465 1 465 0.678834 0.920506 0 14.5458 
466 1 466 0.678856 0.960535 0 15.0243 
467 1 467 0.678881 1.00056 0 15.0609 
468 1 468 0.72 0 0 0 
469 1 469 0.719919 0.0399659 0 1.20375 
470 1 470 0.719845 0.0799392 0 2.63529 
471 1 471 0.71977 0.119917 0 3.51402 
472 1 472 0.719688 0.159902 0 3.30294 
473 1 473 0.719604 0.199891 0 2.23117 
474 1 474 0.719535 0.23989 0 0.866003 
475 1 475 0.719474 0.279895 0 0.145497 
476 1 476 0.719412 0.319905 0 0.806824 
477 1 477 0.71935 0.359918 0 2.3792 
478 1 478 0.719292 0.399929 0 3.9764 
479 1 479 0.71924 0.439947 0 5.05402 
480 1 480 0.719199 0.479971 0 6.00464 
481 1 481 0.719152 0.520003 0 7.1342 
482 1 482 0.719094 0.560042 0 8.5265 
483 1 483 0.719021 0.600086 0 10.3938 
484 1 484 0.718945 0.640129 0 12.4312 
485 1 485 0.718875 0.680178 0 13.7793 
486 1 486 0.718831 0.720224 0 14.3534 
487 1 487 0.7188 0.760279 0 14.2162 
488 1 488 0.718783 0.800331 0 13.2698 
489 1 489 0.718776 0.840387 0 12.8558 
490 1 490 0.718775 0.880436 0 13.5463 
491 1 491 0.718784 0.920475 0 14.3559 
492 1 492 0.718812 0.960507 0 14.7194 
493 1 493 0.718843 1.00053 0 14.8254 
494 1 494 0.76 0 0 0 
495 1 495 0.759914 0.0399612 0 1.72354 
496 1 496 0.759836 0.0799302 0 2.81949 
497 1 497 0.759756 0.119906 0 3.12217 
498 1 498 0.759671 0.159887 0 2.84707 
499 1 499 0.759582 0.199874 0 2.05673 
500 1 500 0.759504 0.23987 0 0.883703 
501 1 501 0.759436 0.279873 0 0.313205 
502 1 502 0.759371 0.319885 0 1.19256 
503 1 503 0.759309 0.359897 0 2.95692 
504 1 504 0.75925 0.399908 0 4.6551 
505 1 505 0.759192 0.439924 0 5.58004 
506 1 506 0.759142 0.479946 0 6.04227 
507 1 507 0.759089 0.519978 0 6.66909 
508 1 508 0.759029 0.560016 0 7.8555 
509 1 509 0.758959 0.600059 0 9.86558 
510 1 510 0.758889 0.6401 0 12.3486 
511 1 511 0.758821 0.680144 0 14.1159 
512 1 512 0.758775 0.720185 0 14.8472 
513 1 513 0.758739 0.760236 0 14.7296 
514 1 514 0.758718 0.800287 0 13.7924 
515 1 515 0.75871 0.840341 0 13.2045 
516 1 516 0.758716 0.880391 0 13.5256 
517 1 517 0.75873 0.920431 0 13.9512 
518 1 518 0.758761 0.960466 0 14.1593 
519 1 519 0.758795 1.00049 0 14.311 
520 1 520 0.8 0 0 0 
521 1 521 0.799907 0.0399585 0 1.89829 
522 1 522 0.799823 0.0799237 0 2.4775 
523 1 523 0.799737 0.119897 0 2.17953 
524 1 524 0.799648 0.159874 0 1.88906 
525 1 525 0.799555 0.199859 0 1.50136 
526 1 526 0.799469 0.239851 0 0.702247 
527 1 527 0.799392 0.279854 0 0.374282 
528 1 528 0.799325 0.319865 0 1.4165 
529 1 529 0.799264 0.359876 0 3.27904 
530 1 530 0.799204 0.399887 0 5.0549 
531 1 531 0.79914 0.439901 0 5.92513 
532 1 532 0.799081 0.479922 0 6.04045 
533 1 533 0.799019 0.519953 0 6.25488 
534 1 534 0.798952 0.55999 0 7.24155 
535 1 535 0.79888 0.600031 0 9.24272 
536 1 536 0.798812 0.640069 0 11.9238 
537 1 537 0.798746 0.680107 0 13.9763 
538 1 538 0.798701 0.720144 0 14.8782 
539 1 539 0.798665 0.76019 0 14.8785 
540 1 540 0.798644 0.800237 0 14.094 
541 1 541 0.798638 0.840288 0 13.3958 
542 1 542 0.79865 0.880337 0 13.2944 
543 1 543 0.79867 0.920378 0 13.3217 
544 1 544 0.798703 0.960416 0 13.3567 
545 1 545 0.798738 1.00045 0 13.5072 
546 1 546 0.84 0 0 0 
547 1 547 0.839902 0.0399576 0 1.74439 
548 1 548 0.839812 0.0799198 0 1.79911 
549 1 549 0.83972 0.11989 0 1.02903 
550 1 550 0.839627 0.159865 0 0.71443 
551 1 551 0.83953 0.199848 0 0.694496 
552 1 552 0.839435 0.239837 0 0.386874 
553 1 553 0.839349 0.279837 0 0.406317 
554 1 554 0.839278 0.319846 0 1.50503 
555 1 555 0.839217 0.359855 0 3.20979 
556 1 556 0.839156 0.399867 0 4.86775 
557 1 557 0.839087 0.43988 0 5.72506 
558 1 558 0.839018 0.479899 0 5.70957 
559 1 559 0.838947 0.51993 0 5.71176 
560 1 560 0.838878 0.559965 0 6.58611 
561 1 561 0.838812 0.600004 0 8.51419 
562 1 562 0.838752 0.640038 0 11.2357 
563 1 563 0.83869 0.680072 0 13.4675 
564 1 564 0.838642 0.720104 0 14.5151 
565 1 565 0.838599 0.760143 0 14.6562 
566 1 566 0.838574 0.800185 0 14.0947 
567 1 567 0.838565 0.840232 0 13.3524 
568 1 568 0.838579 0.880278 0 12.8398 
569 1 569 0.838602 0.92032 0 12.4959 
570 1 570 0.838634 0.960361 0 12.3199 
571 1 571 0.838671 1.00039 0 12.3948 
572 1 572 0.88 0 0 0 
573 1 573 0.879896 0.0399574 0 1.24898 
574 1 574 0.879799 0.0799178 0 0.79452 
575 1 575 0.879701 0.119887 0 -0.252165 
576 1 576 0.879604 0.15986 0 -0.502913 
577 1 577 0.879503 0.199841 0 -0.147997 
578 1 578 0.879399 0.239828 0 0.0604673 
579 1 579 0.879305 0.279825 0 0.382769 
580 1 580 0.879229 0.31983 0 1.36785 
581 1 581 0.879167 0.359837 0 2.69491 
582 1 582 0.879105 0.399849 0 4.07396 
583 1 583 0.879031 0.439862 0 4.93623 
584 1 584 0.878952 0.479881 0 4.99362 
585 1 585 0.878872 0.51991 0 5.02768 
586 1 586 0.878796 0.559942 0 5.90978 
587 1 587 0.878728 0.599978 0 7.68022 
588 1 588 0.878671 0.640009 0 10.2332 
589 1 589 0.878613 0.680039 0 12.5172 
590 1 590 0.878566 0.720067 0 13.7496 
591 1 591 0.878522 0.760101 0 14.153 
592 1 592 0.878496 0.800137 0 13.9332 
593 1 593 0.878486 0.840178 0 13.2553 
594 1 594 0.878502 0.880221 0 12.3945 
595 1 595 0.878526 0.920262 0 11.7032 
596 1 596 0.878557 0.960305 0 11.2387 
597 1 597 0.878594 1.00034 0 11.1431 
598 1 598 0.92 0 0 0 
599 1 599 0.919895 0.0399581 0 0.593549 
600 1 600 0.919793 0.0799181 0 -0.238197 
601 1 601 0.919688 0.119886 0 -1.367 
602 1 602 0.919586 0.159859 0 -1.56803 
603 1 603 0.91948 0.199839 0 -0.951663 
604 1 604 0.919369 0.239823 0 -0.250932 
605 1 605 0.919266 0.279817 0 0.380613 
606 1 606 0.919185 0.319817 0 1.17169 
607 1 607 0.919118 0.359823 0 1.97975 
608 1 608 0.919052 0.399835 0 2.96643 
609 1 609 0.918974 0.439848 0 3.82957 
610 1 610 0.918888 0.479867 0 4.07554 
611 1 611 0.918801 0.519893 0 4.27643 
612 1 612 0.918724 0.559922 0 5.22477 
613 1 613 0.918661 0.599955 0 6.80544 
614 1 614 0.918611 0.639984 0 9.08054 
615 1 615 0.918557 0.680011 0 11.3166 
616 1 616 0.918507 0.720036 0 12.7128 
617 1 617 0.918457 0.760063 0 13.3834 
618 1 618 0.918424 0.800094 0 13.4864 
619 1 619 0.918408 0.840129 0 12.9331 
620 1 620 0.91842 0.880168 0 11.8612 
621 1 621 0.918443 0.920208 0 10.9365 
622 1 622 0.918471 0.960253 0 10.1871 
623 1 623 0.918507 1.00029 0 9.87089 
624 1 624 0.96 0 0 0 
625 1 625 0.959893 0.0399594 0 -0.164102 
626 1 626 0.959785 0.0799205 0 -1.26186 
627 1 627 0.959674 0.119889 0 -2.28969 
628 1 628 0.959567 0.159861 0 -2.38937 
629 1 629 0.959457 0.199841 0 -1.57623 
630 1 630 0.959341 0.239824 0 -0.435437 
631 1 631 0.959231 0.279814 0 0.493562 
632 1 632 0.959143 0.319809 0 1.06041 
633 1 633 0.959068 0.359813 0 1.2725 
634 1 634 0.958998 0.399825 0 1.75486 
635 1 635 0.958916 0.439839 0 2.56562 
636 1 636 0.958824 0.479858 0 3.09653 
637 1 637 0.95873 0.519882 0 3.5854 
638 1 638 0.958649 0.559908 0 4.59197 
639 1 639 0.958581 0.599937 0 5.88876 
640 1 640 0.95853 0.639963 0 7.75184 
641 1 641 0.958479 0.679988 0 9.82618 
642 1 642 0.958431 0.720012 0 11.3715 
643 1 643 0.958382 0.760033 0 12.3708 
644 1 644 0.958348 0.80006 0 12.8499 
645 1 645 0.958327 0.840088 0 12.5233 
646 1 646 0.958334 0.880124 0 11.3819 
647 1 647 0.958353 0.920163 0 10.3151 
648 1 648 0.958377 0.960208 0 9.33946 
649 1 649 0.95841 1.00025 0 8.81979 
650 1 650 1 0 0 0 
651 1 651 0.999893 0.0399616 0 -0.88891 
652 1 652 0.999783 0.0799254 0 -2.12845 
653 1 653 0.999666 0.119895 0 -2.91939 
654 1 654 0.999553 0.159868 0 -2.8695 
655 1 655 0.999438 0.199848 0 -1.91562 
656 1 656 0.999319 0.239829 0 -0.428162 
657 1 657 0.999203 0.279816 0 0.74684 
658 1 658 0.999107 0.319807 0 1.12122 
659 1 659 0.999022 0.359809 0 0.832254 
660 1 660 0.998945 0.399819 0 0.828196 
661 1 661 0.998859 0.439834 0 1.47966 
662 1 662 0.998764 0.479854 0 2.22841 
663 1 663 0.998667 0.519875 0 3.01555 
664 1 664 0.998586 0.559897 0 4.07617 
665 1 665 0.998521 0.599922 0 5.0656 
666 1 666 0.998473 0.639946 0 6.42992 
667 1 667 0.998424 0.67997 0 8.22109 
668 1 668 0.998373 0.719992 0 9.8411 
669 1 669 0.998318 0.76001 0 11.1453 
670 1 670 0.998277 0.800033 0 11.9986 
671 1 671 0.998247 0.840056 0 12.0201 
672 1 672 0.998245 0.880089 0 11.0364 
673 1 673 0.998258 0.920127 0 9.96175 
674 1 674 0.998276 0.960174 0 8.85153 
675 1 675 0.998304 1.00022 0 8.18734 
676 1 676 1.04 0 0 0 
677 1 677 1.03989 0.0399647 0 -1.45846 
678 1 678 1.03977 0.0799322 0 -2.71691 
679 1 679 1.03965 0.119904 0 -3.21196 
680 1 680 1.03954 0.159879 0 -3.00223 
681 1 681 1.03942 0.199859 0 -1.9495 
682 1 682 1.0393 0.23984 0 -0.183505 
683 1 683 1.03918 0.279824 0 1.20999 
684 1 684 1.03907 0.319811 0 1.43531 
685 1 685 1.03898 0.35981 0 0.746312 
686 1 686 1.03889 0.399819 0 0.313909 
687 1 687 1.0388 0.439835 0 0.76785 
688 1 688 1.0387 0.479854 0 1.67525 
689 1 689 1.03861 0.519872 0 2.67498 
690 1 690 1.03852 0.559891 0 3.69789 
691 1 691 1.03845 0.599912 0 4.39251 
692 1 692 1.03839 0.639934 0 5.27754 
693 1 693 1.03834 0.679955 0 6.7386 
694 1 694 1.03829 0.719976 0 8.38074 
695 1 695 1.03824 0.759992 0 9.96612 
696 1 696 1.0382 0.800013 0 11.1446 
697 1 697 1.03817 0.840032 0 11.4827 
698 1 698 1.03815 0.880064 0 10.7474 
699 1 699 1.03816 0.920102 0 9.77473 
700 1 700 1.03817 0.960148 0 8.70719 
701 1 701 1.03819 1.0002 0 8.03582 
702 1 702 1.08 0 0 0 
703 1 703 1.07989 0.0399685 0 -1.77542 
704 1 704 1.07977 0.0799404 0 -2.90593 
705 1 705 1.07964 0.119915 0 -3.04435 
706 1 706 1.07952 0.159892 0 -2.62998 
707 1 707 1.0794 0.199874 0 -1.53149 
708 1 708 1.07928 0.239854 0 0.328804 
709 1 709 1.07916 0.279835 0 1.81643 
710 1 710 1.07905 0.31982 0 1.9878 
711 1 711 1.07894 0.359817 0 1.11645 
712 1 712 1.07884 0.399823 0 0.335059 
713 1 713 1.07875 0.439839 0 0.476842 
714 1 714 1.07865 0.479856 0 1.42615 
715 1 715 1.07855 0.519871 0 2.58867 
716 1 716 1.07846 0.559887 0 3.57092 
717 1 717 1.07839 0.599902 0 4.06159 
718 1 718 1.07833 0.639922 0 4.54698 
719 1 719 1.07828 0.679942 0 5.64226 
720 1 720 1.07823 0.719963 0 7.16072 
721 1 721 1.07818 0.759978 0 8.89387 
722 1 722 1.07813 0.799998 0 10.3867 
723 1 723 1.07808 0.840016 0 11.1119 
724 1 724 1.07806 0.880046 0 10.7474 
725 1 725 1.07805 0.920083 0 9.92586 
726 1 726 1.07806 0.96013 0 9.01422 
727 1 727 1.07808 1.00018 0 8.46854 
728 1 728 1.12 0 0 0 
729 1 729 1.11988 0.0399726 0 -1.82563 
730 1 730 1.11975 0.0799493 0 -2.71252 
731 1 731 1.11963 0.119929 0 -2.50393 
732 1 732 1.1195 0.159908 0 -1.87085 
733 1 733 1.11938 0.199891 0 -0.728062 
734 1 734 1.11926 0.239871 0 1.1017 
735 1 735 1.11914 0.279852 0 2.53074 
736 1 736 1.11902 0.319836 0 2.64251 
737 1 737 1.1189 0.35983 0 1.75742 
738 1 738 1.11879 0.399833 0 0.796829 
739 1 739 1.11869 0.439846 0 0.648502 
740 1 740 1.11859 0.479861 0 1.56901 
741 1 741 1.11849 0.519873 0 2.86594 
742 1 742 1.1184 0.559886 0 3.87856 
743 1 743 1.11832 0.599897 0 4.30685 
744 1 744 1.11825 0.639914 0 4.4807 
745 1 745 1.1182 0.679932 0 5.21922 
746 1 746 1.11815 0.719952 0 6.54806 
747 1 747 1.1181 0.759967 0 8.28336 
748 1 748 1.11805 0.799986 0 9.93696 
749 1 749 1.118 0.840004 0 10.9022 
750 1 750 1.11797 0.880032 0 10.8822 
751 1 751 1.11795 0.92007 0 10.2321 
752 1 752 1.11795 0.960117 0 9.54968 
753 1 753 1.11796 1.00017 0 9.22769 
754 1 754 1.16 0 0 0 
755 1 755 1.15987 0.0399765 0 -1.53464 
756 1 756 1.15974 0.0799577 0 -2.0857 
757 1 757 1.15962 0.119942 0 -1.6087 
758 1 758 1.15949 0.159925 0 -0.780401 
759 1 759 1.15936 0.199909 0 0.372785 
760 1 760 1.15925 0.23989 0 2.01219 
761 1 761 1.15913 0.279871 0 3.26665 
762 1 762 1.159 0.319854 0 3.40374 
763 1 763 1.15887 0.359845 0 2.71149 
764 1 764 1.15875 0.399845 0 1.75896 
765 1 765 1.15864 0.439854 0 1.39789 
766 1 766 1.15854 0.479864 0 2.20239 
767 1 767 1.15844 0.519875 0 3.48251 
768 1 768 1.15835 0.559884 0 4.49619 
769 1 769 1.15827 0.599892 0 5.01704 
770 1 770 1.1582 0.639907 0 5.02269 
771 1 771 1.15814 0.679921 0 5.35836 
772 1 772 1.15808 0.719941 0 6.32018 
773 1 773 1.15803 0.759957 0 7.88221 
774 1 774 1.15797 0.799976 0 9.61519 
775 1 775 1.15792 0.839994 0 10.7458 
776 1 776 1.15787 0.880022 0 11.1052 
777 1 777 1.15784 0.920058 0 10.7459 
778 1 778 1.15784 0.960103 0 10.3395 
779 1 779 1.15785 1.00016 0 10.2628 
780 1 780 1.2 0 0 0 
781 1 781 1.19986 0.0399803 0 -1.00654 
782 1 782 1.19973 0.0799655 0 -1.15372 
783 1 783 1.1996 0.119954 0 -0.472588 
784 1 784 1.19947 0.15994 0 0.500405 
785 1 785 1.19934 0.199926 0 1.60377 
786 1 786 1.19923 0.23991 0 2.9258 
787 1 787 1.19911 0.279893 0 3.92625 
788 1 788 1.19898 0.319877 0 4.152 
789 1 789 1.19884 0.359867 0 3.79089 
790 1 790 1.19871 0.399862 0 2.95597 
791 1 791 1.1986 0.439867 0 2.39772 
792 1 792 1.19849 0.479874 0 3.00797 
793 1 793 1.19839 0.519882 0 4.2296 
794 1 794 1.1983 0.559888 0 5.24408 
795 1 795 1.1982 0.599893 0 5.86289 
796 1 796 1.19812 0.639904 0 5.77261 
797 1 797 1.19805 0.679914 0 5.78034 