ITEM: TIMESTEP
0
ITEM: NUMBER OF ATOMS
7127
ITEM: BOX BOUNDS sm sm sm
0 4
0 2
0 0
ITEM: ATOMS id type tag x y z vx 
0 1 0 0 0 0 0 
1 1 1 0 0.04 0 0 
2 1 2 0 0.08 0 0 
3 1 3 0 0.12 0 0 
4 1 4 0 0.16 0 0 
5 1 5 0 0.2 0 0 
6 1 6 0 0.24 0 0 
7 1 7 0 0.28 0 0 
8 1 8 0 0.32 0 0 
9 1 9 0 0.36 0 0 
10 1 10 0 0.4 0 0 
11 1 11 0 0.44 0 0 
12 1 12 0 0.48 0 0 
13 1 13 0 0.52 0 0 
14 1 14 0 0.56 0 0 
15 1 15 0 0.6 0 0 
16 1 16 0 0.64 0 0 
17 1 17 0 0.68 0 0 
18 1 18 0 0.72 0 0 
19 1 19 0 0.76 0 0 
20 1 20 0 0.8 0 0 
21 1 21 0 0.84 0 0 
22 1 22 0 0.88 0 0 
23 1 23 0 0.92 0 0 
24 1 24 0 0.96 0 0 
25 1 25 0 1 0 0 
26 1 26 0.04 0 0 0 
27 1 27 0.0399966 0.0399971 0 -0.120408 
28 1 28 0.0399957 0.0799948 0 -0.268493 
29 1 29 0.0399935 0.119991 0 -0.47708 
30 1 30 0.0399913 0.159986 0 -0.499022 
31 1 31 0.0399887 0.199981 0 -0.535951 
32 1 32 0.0399864 0.239976 0 -0.586341 
33 1 33 0.0399844 0.279973 0 -0.50064 
34 1 34 0.0399825 0.319972 0 -0.491924 
35 1 35 0.0399828 0.359974 0 -0.403932 
36 1 36 0.0399827 0.399975 0 -0.223509 
37 1 37 0.0399832 0.439977 0 -0.243415 
38 1 38 0.0399836 0.479977 0 -0.105163 
39 1 39 0.0399824 0.519979 0 -0.0378871 
40 1 40 0.039983 0.559979 0 0.0370545 
41 1 41 0.0399825 0.59998 0 0.120975 
42 1 42 0.0399832 0.639978 0 0.126205 
43 1 43 0.039981 0.679978 0 0.0240481 
44 1 44 0.0399845 0.719977 0 -0.0223927 
45 1 45 0.0399798 0.759981 0 -0.0865174 
46 1 46 0.0399836 0.799985 0 -0.384786 
47 1 47 0.0399856 0.839992 0 -0.353981 
48 1 48 0.0399906 0.879997 0 -0.32844 
49 1 49 0.0399927 0.920001 0 -0.419833 
50 1 50 0.0399998 0.959997 0 -0.23211 
51 1 51 0.0399924 1 0 -0.0145943 
52 1 52 0.08 0 0 0 
53 1 53 0.0799943 0.0399943 0 -0.386303 
54 1 54 0.0799909 0.0799868 0 -0.671214 
55 1 55 0.0799879 0.119981 0 -0.958144 
56 1 56 0.079986 0.159972 0 -0.982205 
57 1 57 0.079981 0.199965 0 -0.997768 
58 1 58 0.0799768 0.239956 0 -1.00491 
59 1 59 0.0799691 0.279953 0 -0.839224 
60 1 60 0.0799661 0.31995 0 -0.807573 
61 1 61 0.0799638 0.359954 0 -0.71358 
62 1 62 0.0799663 0.399953 0 -0.520852 
63 1 63 0.0799645 0.439957 0 -0.535875 
64 1 64 0.0799672 0.479956 0 -0.309728 
65 1 65 0.0799615 0.519959 0 -0.156068 
66 1 66 0.0799662 0.559958 0 0.0923703 
67 1 67 0.0799622 0.599959 0 0.39265 
68 1 68 0.0799683 0.639957 0 0.421737 
69 1 69 0.0799625 0.679957 0 0.266317 
70 1 70 0.0799667 0.719957 0 -0.118785 
71 1 71 0.0799616 0.759962 0 -0.38879 
72 1 72 0.0799622 0.799969 0 -0.773706 
73 1 73 0.0799674 0.839979 0 -0.85437 
74 1 74 0.0799744 0.879988 0 -0.824306 
75 1 75 0.0799899 0.919992 0 -0.699739 
76 1 76 0.0799926 0.959997 0 -0.408144 
77 1 77 0.0799968 0.999992 0 -0.353721 
78 1 78 0.12 0 0 0 
79 1 79 0.119991 0.0399885 0 -0.645164 
80 1 80 0.119986 0.0799784 0 -1.05727 
81 1 81 0.119982 0.119969 0 -1.3727 
82 1 82 0.119981 0.159959 0 -1.45967 
83 1 83 0.119975 0.199949 0 -1.45397 
84 1 84 0.119969 0.239941 0 -1.36089 
85 1 85 0.119957 0.279936 0 -1.10993 
86 1 86 0.119952 0.319934 0 -1.02695 
87 1 87 0.119947 0.359936 0 -0.956935 
88 1 88 0.119949 0.399936 0 -0.863405 
89 1 89 0.119948 0.439937 0 -0.841381 
90 1 90 0.119951 0.479937 0 -0.544955 
91 1 91 0.119946 0.519936 0 -0.215758 
92 1 92 0.119949 0.559937 0 0.260406 
93 1 93 0.119949 0.599934 0 0.765235 
94 1 94 0.119952 0.639936 0 0.799955 
95 1 95 0.119951 0.679934 0 0.587737 
96 1 96 0.119946 0.719939 0 -0.0230284 
97 1 97 0.119943 0.759944 0 -0.710595 
98 1 98 0.119941 0.799954 0 -1.12536 
99 1 99 0.119946 0.839964 0 -1.25434 
100 1 100 0.119959 0.879972 0 -1.28103 
101 1 101 0.119977 0.919982 0 -1.0003 
102 1 102 0.119988 0.959985 0 -0.83906 
103 1 103 0.119991 0.999991 0 -1.00397 
104 1 104 0.16 0 0 0 
105 1 105 0.159987 0.0399829 0 -0.886479 
106 1 106 0.15998 0.0799699 0 -1.43377 
107 1 107 0.159978 0.119958 0 -1.74705 
108 1 108 0.159976 0.159947 0 -1.84077 
109 1 109 0.159969 0.199936 0 -1.73461 
110 1 110 0.15996 0.239929 0 -1.52399 
111 1 111 0.159945 0.279923 0 -1.25509 
112 1 112 0.159937 0.31992 0 -1.14484 
113 1 113 0.159932 0.359919 0 -1.10562 
114 1 114 0.159933 0.399919 0 -1.11654 
115 1 115 0.159933 0.439919 0 -1.0882 
116 1 116 0.159933 0.479917 0 -0.789734 
117 1 117 0.15993 0.519916 0 -0.305804 
118 1 118 0.159932 0.559913 0 0.408498 
119 1 119 0.159933 0.599913 0 1.03211 
120 1 120 0.159935 0.639912 0 1.13082 
121 1 121 0.159932 0.679915 0 0.797408 
122 1 122 0.159928 0.719917 0 0.0739501 
123 1 123 0.159919 0.759929 0 -0.868517 
124 1 124 0.15992 0.799936 0 -1.52266 
125 1 125 0.159924 0.839949 0 -1.71104 
126 1 126 0.159941 0.879959 0 -1.68132 
127 1 127 0.159962 0.919967 0 -1.36123 
128 1 128 0.159976 0.959979 0 -1.39041 
129 1 129 0.159988 0.999981 0 -1.66855 
130 1 130 0.2 0 0 0 
131 1 131 0.199981 0.0399779 0 -1.06497 
132 1 132 0.199973 0.0799617 0 -1.74966 
133 1 133 0.199971 0.119948 0 -2.04548 
134 1 134 0.199969 0.159935 0 -2.06481 
135 1 135 0.199963 0.199926 0 -1.81994 
136 1 136 0.199953 0.239918 0 -1.50446 
137 1 137 0.199936 0.279912 0 -1.25561 
138 1 138 0.199926 0.319907 0 -1.07449 
139 1 139 0.199918 0.359905 0 -1.09178 
140 1 140 0.19992 0.399901 0 -1.25245 
141 1 141 0.19992 0.4399 0 -1.26271 
142 1 142 0.199921 0.479896 0 -1.03912 
143 1 143 0.19992 0.519894 0 -0.502477 
144 1 144 0.199922 0.559888 0 0.354115 
145 1 145 0.199921 0.599888 0 1.05362 
146 1 146 0.199924 0.639887 0 1.31293 
147 1 147 0.199918 0.679892 0 1.00807 
148 1 148 0.19991 0.719898 0 0.151939 
149 1 149 0.199899 0.759905 0 -0.856146 
150 1 150 0.199897 0.799919 0 -1.61807 
151 1 151 0.1999 0.839928 0 -2.01329 
152 1 152 0.199919 0.879943 0 -2.05104 
153 1 153 0.199941 0.919954 0 -1.77378 
154 1 154 0.19996 0.959963 0 -1.91989 
155 1 155 0.199982 0.99997 0 -2.21781 
156 1 156 0.24 0 0 0 
157 1 157 0.239976 0.0399749 0 -1.10051 
158 1 158 0.239966 0.0799545 0 -1.84544 
159 1 159 0.239965 0.119938 0 -2.1278 
160 1 160 0.239963 0.159925 0 -2.11097 
161 1 161 0.239956 0.199914 0 -1.83746 
162 1 162 0.239943 0.239906 0 -1.42174 
163 1 163 0.239926 0.279899 0 -1.11534 
164 1 164 0.239915 0.319894 0 -0.865033 
165 1 165 0.239905 0.359889 0 -0.949757 
166 1 166 0.239906 0.399885 0 -1.23982 
167 1 167 0.239906 0.439881 0 -1.27725 
168 1 168 0.239908 0.479877 0 -1.16382 
169 1 169 0.239909 0.519872 0 -0.624763 
170 1 170 0.239909 0.559867 0 0.282759 
171 1 171 0.239908 0.599865 0 0.972834 
172 1 172 0.239906 0.639865 0 1.27454 
173 1 173 0.239898 0.679868 0 1.01519 
174 1 174 0.239888 0.719876 0 0.202772 
175 1 175 0.239874 0.759884 0 -0.832877 
176 1 176 0.239872 0.799894 0 -1.57932 
177 1 177 0.239873 0.839907 0 -2.05621 
178 1 178 0.239893 0.879917 0 -2.31467 
179 1 179 0.239917 0.91993 0 -2.20905 
180 1 180 0.239943 0.959941 0 -2.35957 
181 1 181 0.239969 0.999949 0 -2.56843 
182 1 182 0.28 0 0 0 
183 1 183 0.279973 0.039973 0 -1.05467 
184 1 184 0.279962 0.079949 0 -1.8007 
185 1 185 0.279958 0.119929 0 -2.12005 
186 1 186 0.279955 0.159914 0 -2.0929 
187 1 187 0.279946 0.199903 0 -1.81523 
188 1 188 0.279933 0.239894 0 -1.31779 
189 1 189 0.279915 0.279886 0 -0.93393 
190 1 190 0.279904 0.319879 0 -0.678577 
191 1 191 0.279893 0.359872 0 -0.728463 
192 1 192 0.279894 0.399866 0 -1.02681 
193 1 193 0.279896 0.439862 0 -1.15978 
194 1 194 0.279901 0.479856 0 -1.15982 
195 1 195 0.279904 0.519851 0 -0.663735 
196 1 196 0.279904 0.559844 0 0.201532 
197 1 197 0.279901 0.599842 0 0.860701 
198 1 198 0.279897 0.639841 0 1.16808 
199 1 199 0.279884 0.679846 0 0.94117 
200 1 200 0.279872 0.719852 0 0.336809 
201 1 201 0.279854 0.759861 0 -0.540044 
202 1 202 0.27985 0.799869 0 -1.31294 
203 1 203 0.279851 0.839878 0 -1.89807 
204 1 204 0.279869 0.87989 0 -2.35103 
205 1 205 0.279893 0.9199 0 -2.43677 
206 1 206 0.27992 0.959913 0 -2.59623 
207 1 207 0.279951 0.999924 0 -2.73018 
208 1 208 0.32 0 0 0 
209 1 209 0.319973 0.039972 0 -0.904071 
210 1 210 0.31996 0.0799444 0 -1.58206 
211 1 211 0.319953 0.119922 0 -2.00917 
212 1 212 0.319947 0.159904 0 -2.03865 
213 1 213 0.319934 0.199892 0 -1.76041 
214 1 214 0.319921 0.239882 0 -1.27012 
215 1 215 0.319904 0.279873 0 -0.825056 
216 1 216 0.319892 0.319863 0 -0.525207 
217 1 217 0.319882 0.359854 0 -0.481449 
218 1 218 0.319882 0.399846 0 -0.673548 
219 1 219 0.319883 0.439841 0 -0.825115 
220 1 220 0.319889 0.479835 0 -0.809539 
221 1 221 0.319892 0.519831 0 -0.373126 
222 1 222 0.319894 0.559826 0 0.299728 
223 1 223 0.319889 0.599823 0 0.87574 
224 1 224 0.319879 0.639822 0 1.15017 
225 1 225 0.319863 0.679825 0 0.910906 
226 1 226 0.319848 0.71983 0 0.397541 
227 1 227 0.319831 0.759835 0 -0.297748 
228 1 228 0.319825 0.799843 0 -0.938809 
229 1 229 0.319824 0.839849 0 -1.6264 
230 1 230 0.319842 0.879858 0 -2.26428 
231 1 231 0.319865 0.919869 0 -2.48175 
232 1 232 0.319894 0.959881 0 -2.74559 
233 1 233 0.319926 0.999895 0 -2.91708 
234 1 234 0.36 0 0 0 
235 1 235 0.359976 0.0399717 0 -0.661306 
236 1 236 0.359961 0.0799416 0 -1.24984 
237 1 237 0.359948 0.119917 0 -1.79877 
238 1 238 0.359938 0.159896 0 -1.94681 
239 1 239 0.359923 0.199882 0 -1.76112 
240 1 240 0.359909 0.239869 0 -1.38054 
241 1 241 0.359892 0.279858 0 -0.864485 
242 1 242 0.35988 0.319847 0 -0.449372 
243 1 243 0.359872 0.359837 0 -0.282661 
244 1 244 0.35987 0.399827 0 -0.295192 
245 1 245 0.359872 0.43982 0 -0.377068 
246 1 246 0.359882 0.479814 0 -0.271627 
247 1 247 0.359887 0.519809 0 0.105335 
248 1 248 0.359889 0.559806 0 0.563092 
249 1 249 0.359882 0.599804 0 0.987964 
250 1 250 0.359871 0.639805 0 1.14004 
251 1 251 0.359852 0.679807 0 0.950802 
252 1 252 0.359835 0.71981 0 0.548474 
253 1 253 0.359815 0.759813 0 -0.063321 
254 1 254 0.359808 0.799816 0 -0.610659 
255 1 255 0.359806 0.83982 0 -1.30365 
256 1 256 0.35982 0.879827 0 -2.03856 
257 1 257 0.359839 0.919837 0 -2.37444 
258 1 258 0.359865 0.959852 0 -2.80312 
259 1 259 0.359895 0.999866 0 -3.08422 
260 1 260 0.4 0 0 0 
261 1 261 0.399981 0.0399713 0 -0.393991 
262 1 262 0.399965 0.07994 0 -0.894958 
263 1 263 0.399947 0.119912 0 -1.52177 
264 1 264 0.399931 0.15989 0 -1.78635 
265 1 265 0.399912 0.199873 0 -1.72332 
266 1 266 0.399897 0.239859 0 -1.39959 
267 1 267 0.399882 0.279846 0 -0.843705 
268 1 268 0.399871 0.319833 0 -0.399206 
269 1 269 0.399863 0.35982 0 -0.0841227 
270 1 270 0.39986 0.399809 0 0.141192 
271 1 271 0.399861 0.439801 0 0.182285 
272 1 272 0.399869 0.479795 0 0.418631 
273 1 273 0.399872 0.519791 0 0.730598 
274 1 274 0.399876 0.559789 0 1.00349 
275 1 275 0.399866 0.599789 0 1.24966 
276 1 276 0.399852 0.639788 0 1.11066 
277 1 277 0.399832 0.679789 0 0.849183 
278 1 278 0.399813 0.71979 0 0.540934 
279 1 279 0.399795 0.75979 0 0.0305742 
280 1 280 0.399786 0.799792 0 -0.467285 
281 1 281 0.399784 0.839793 0 -1.12953 
282 1 282 0.399793 0.8798 0 -1.84951 
283 1 283 0.399809 0.919811 0 -2.30574 
284 1 284 0.399832 0.959825 0 -2.94269 
285 1 285 0.399861 0.999842 0 -3.35372 
286 1 286 0.44 0 0 0 
287 1 287 0.439989 0.0399708 0 -0.139008 
288 1 288 0.43997 0.0799389 0 -0.501193 
289 1 289 0.439947 0.119909 0 -1.12301 
290 1 290 0.439926 0.159885 0 -1.47166 
291 1 291 0.439904 0.199866 0 -1.53776 
292 1 292 0.439888 0.23985 0 -1.27629 
293 1 293 0.439874 0.279835 0 -0.763697 
294 1 294 0.439864 0.31982 0 -0.349972 
295 1 295 0.439857 0.359806 0 0.0910107 
296 1 296 0.439854 0.399793 0 0.472742 
297 1 297 0.439854 0.439783 0 0.62574 
298 1 298 0.439861 0.479776 0 0.981502 
299 1 299 0.439864 0.519772 0 1.21835 
300 1 300 0.439867 0.559771 0 1.32441 
301 1 301 0.439856 0.599771 0 1.40808 
302 1 302 0.439842 0.639771 0 1.08804 
303 1 303 0.439821 0.679771 0 0.733112 
304 1 304 0.439802 0.719772 0 0.395352 
305 1 305 0.439783 0.759771 0 -0.0318529 
306 1 306 0.439774 0.79977 0 -0.504928 
307 1 307 0.439769 0.839773 0 -1.10886 
308 1 308 0.439772 0.879777 0 -1.77502 
309 1 309 0.439781 0.919788 0 -2.38158 
310 1 310 0.4398 0.959803 0 -3.18548 
311 1 311 0.439825 0.999819 0 -3.67429 
312 1 312 0.48 0 0 0 
313 1 313 0.479993 0.0399703 0 0.0484873 
314 1 314 0.479975 0.0799384 0 -0.158238 
315 1 315 0.47995 0.119909 0 -0.650972 
316 1 316 0.479924 0.159883 0 -0.994838 
317 1 317 0.479899 0.199862 0 -1.13364 
318 1 318 0.479883 0.239843 0 -0.967679 
319 1 319 0.47987 0.279827 0 -0.570688 
320 1 320 0.479861 0.319811 0 -0.195028 
321 1 321 0.479854 0.359795 0 0.300293 
322 1 322 0.47985 0.399781 0 0.775838 
323 1 323 0.479847 0.439768 0 1.05586 
324 1 324 0.47985 0.479761 0 1.47103 
325 1 325 0.479848 0.519757 0 1.58665 
326 1 326 0.47985 0.559756 0 1.51364 
327 1 327 0.479837 0.599755 0 1.38573 
328 1 328 0.479822 0.639754 0 0.963186 
329 1 329 0.479798 0.679753 0 0.561357 
330 1 330 0.479778 0.719752 0 0.113501 
331 1 331 0.479762 0.759751 0 -0.26911 
332 1 332 0.479751 0.799751 0 -0.773104 
333 1 333 0.479747 0.839753 0 -1.31888 
334 1 334 0.479747 0.879759 0 -1.84287 
335 1 335 0.479751 0.91977 0 -2.50951 
336 1 336 0.479766 0.959783 0 -3.35151 
337 1 337 0.479786 0.999801 0 -3.8406 
338 1 338 0.52 0 0 0 
339 1 339 0.519999 0.03997 0 0.231025 
340 1 340 0.519981 0.0799396 0 0.146318 
341 1 341 0.519954 0.119911 0 -0.129985 
342 1 342 0.519925 0.159884 0 -0.423648 
343 1 343 0.5199 0.19986 0 -0.612594 
344 1 344 0.519881 0.23984 0 -0.511343 
345 1 345 0.519868 0.27982 0 -0.263952 
346 1 346 0.51986 0.319802 0 0.0383844 
347 1 347 0.519854 0.359785 0 0.435655 
348 1 348 0.519849 0.399769 0 0.893106 
349 1 349 0.519845 0.439755 0 1.27758 
350 1 350 0.519846 0.479746 0 1.64905 
351 1 351 0.519841 0.51974 0 1.69328 
352 1 352 0.51984 0.559737 0 1.56293 
353 1 353 0.519826 0.599736 0 1.253 
354 1 354 0.519811 0.639736 0 0.757525 
355 1 355 0.519788 0.679735 0 0.345633 
356 1 356 0.519767 0.719735 0 -0.133648 
357 1 357 0.519751 0.759734 0 -0.425511 
358 1 358 0.519739 0.799735 0 -0.97165 
359 1 359 0.519733 0.839739 0 -1.50117 
360 1 360 0.519726 0.879744 0 -1.95158 
361 1 361 0.519726 0.919754 0 -2.66897 
362 1 362 0.519734 0.959768 0 -3.46734 
363 1 363 0.519747 0.999785 0 -3.91388 
364 1 364 0.56 0 0 0 
365 1 365 0.559999 0.0399708 0 0.3698 
366 1 366 0.559983 0.0799431 0 0.370451 
367 1 367 0.559958 0.119914 0 0.341453 
368 1 368 0.559929 0.159887 0 0.150083 
369 1 369 0.559903 0.199861 0 -0.0901236 
370 1 370 0.559884 0.239837 0 -0.0830007 
371 1 371 0.55987 0.279816 0 -0.0321446 
372 1 372 0.559863 0.319795 0 0.173962 
373 1 373 0.559856 0.359776 0 0.478621 
374 1 374 0.559851 0.399759 0 0.934245 
375 1 375 0.559843 0.439744 0 1.43267 
376 1 376 0.559837 0.479734 0 1.7235 
377 1 377 0.559827 0.519727 0 1.71187 
378 1 378 0.559822 0.559724 0 1.54529 
379 1 379 0.559806 0.599722 0 1.08395 
380 1 380 0.559788 0.639719 0 0.598621 
381 1 381 0.559762 0.679717 0 0.177435 
382 1 382 0.559742 0.719716 0 -0.382721 
383 1 383 0.559727 0.759717 0 -0.634532 
384 1 384 0.559714 0.799719 0 -1.17455 
385 1 385 0.55971 0.839725 0 -1.5691 
386 1 386 0.559701 0.879732 0 -1.87781 
387 1 387 0.559698 0.919742 0 -2.59201 
388 1 388 0.5597 0.959756 0 -3.34925 
389 1 389 0.559707 0.999774 0 -3.7809 
390 1 390 0.6 0 0 0 
391 1 391 0.6 0.0399727 0 0.432085 
392 1 392 0.599985 0.0799475 0 0.543772 
393 1 393 0.599963 0.11992 0 0.70227 
394 1 394 0.599935 0.159891 0 0.567886 
395 1 395 0.59991 0.199863 0 0.331652 
396 1 396 0.599888 0.239836 0 0.245864 
397 1 397 0.599874 0.27981 0 0.0997817 
398 1 398 0.599866 0.319788 0 0.194007 
399 1 399 0.599859 0.359766 0 0.397993 
400 1 400 0.599853 0.399748 0 0.834142 
401 1 401 0.599843 0.439732 0 1.35821 
402 1 402 0.599835 0.47972 0 1.61894 
403 1 403 0.599823 0.519711 0 1.62857 
404 1 404 0.599813 0.559707 0 1.40398 
405 1 405 0.599795 0.599704 0 0.888956 
406 1 406 0.599779 0.639702 0 0.524926 
407 1 407 0.599753 0.679702 0 0.16755 
408 1 408 0.599732 0.719701 0 -0.382156 
409 1 409 0.599715 0.759703 0 -0.609615 
410 1 410 0.5997 0.799707 0 -1.13765 
411 1 411 0.599692 0.839715 0 -1.42444 
412 1 412 0.599679 0.879724 0 -1.65997 
413 1 413 0.599672 0.919735 0 -2.32623 
414 1 414 0.599667 0.959748 0 -3.03803 
415 1 415 0.599666 0.999766 0 -3.48896 
416 1 416 0.64 0 0 0 
417 1 417 0.639996 0.0399753 0 0.507931 
418 1 418 0.639985 0.0799518 0 0.675903 
419 1 419 0.639968 0.119925 0 0.889803 
420 1 420 0.639942 0.159896 0 0.778779 
421 1 421 0.639918 0.199865 0 0.587814 
422 1 422 0.639896 0.239835 0 0.394465 
423 1 423 0.639881 0.279806 0 0.0692739 
424 1 424 0.639871 0.31978 0 0.117727 
425 1 425 0.639862 0.359757 0 0.244223 
426 1 426 0.639856 0.399737 0 0.628808 
427 1 427 0.639842 0.439721 0 1.18389 
428 1 428 0.639828 0.479708 0 1.48147 
429 1 429 0.63981 0.5197 0 1.53033 
430 1 430 0.639794 0.559695 0 1.28064 
431 1 431 0.639775 0.59969 0 0.799925 
432 1 432 0.639754 0.639688 0 0.468523 
433 1 433 0.639726 0.679687 0 0.0876818 
434 1 434 0.639705 0.719686 0 -0.367062 
435 1 435 0.639686 0.75969 0 -0.53328 
436 1 436 0.639672 0.799697 0 -0.951016 
437 1 437 0.639663 0.839707 0 -1.08745 
438 1 438 0.63965 0.879719 0 -1.31004 
439 1 439 0.639642 0.919732 0 -1.90165 
440 1 440 0.639632 0.959745 0 -2.56143 
441 1 441 0.639627 0.999764 0 -3.04742 
442 1 442 0.68 0 0 0 
443 1 443 0.679994 0.0399774 0 0.556537 
444 1 444 0.679986 0.0799555 0 0.706679 
445 1 445 0.679972 0.11993 0 0.924765 
446 1 446 0.67995 0.1599 0 0.892771 
447 1 447 0.679929 0.199867 0 0.756145 
448 1 448 0.679905 0.239834 0 0.525252 
449 1 449 0.679888 0.279801 0 0.12434 
450 1 450 0.679877 0.319773 0 0.0958454 
451 1 451 0.679866 0.359747 0 0.171622 
452 1 452 0.679859 0.399726 0 0.506721 
453 1 453 0.679843 0.439708 0 1.01637 
454 1 454 0.679827 0.479695 0 1.3005 
455 1 455 0.679807 0.519684 0 1.34202 
456 1 456 0.679786 0.559678 0 1.12892 
457 1 457 0.679765 0.599675 0 0.781148 
458 1 458 0.679744 0.639675 0 0.484448 
459 1 459 0.679718 0.679675 0 0.147438 
460 1 460 0.679694 0.719677 0 -0.173862 
461 1 461 0.67967 0.759683 0 -0.394146 
462 1 462 0.679653 0.799692 0 -0.71899 
463 1 463 0.679639 0.839704 0 -0.705606 
464 1 464 0.679623 0.879718 0 -0.929502 
465 1 465 0.679613 0.919733 0 -1.39687 
466 1 466 0.679596 0.959747 0 -1.96054 
467 1 467 0.679587 0.999766 0 -2.44991 
468 1 468 0.72 0 0 0 
469 1 469 0.71999 0.0399791 0 0.519475 
470 1 470 0.719985 0.079958 0 0.687688 
471 1 471 0.719976 0.119933 0 0.906124 
472 1 472 0.719959 0.159903 0 0.981127 
473 1 473 0.719939 0.199868 0 0.95209 
474 1 474 0.719916 0.239832 0 0.767454 
475 1 475 0.719899 0.279798 0 0.426757 
476 1 476 0.719884 0.319767 0 0.324448 
477 1 477 0.719871 0.35974 0 0.312265 
478 1 478 0.71986 0.399719 0 0.540129 
479 1 479 0.719841 0.439701 0 0.889938 
480 1 480 0.719819 0.479688 0 1.14642 
481 1 481 0.719792 0.519677 0 1.19513 
482 1 482 0.719768 0.559671 0 0.970793 
483 1 483 0.719743 0.599667 0 0.688006 
484 1 484 0.719715 0.639665 0 0.390133 
485 1 485 0.719687 0.679665 0 0.119536 
486 1 486 0.719661 0.719668 0 -0.0630188 
487 1 487 0.719635 0.759676 0 -0.300712 
488 1 488 0.719617 0.799687 0 -0.450252 
489 1 489 0.719601 0.839702 0 -0.333938 
490 1 490 0.719587 0.879718 0 -0.612792 
491 1 491 0.719577 0.919735 0 -0.94466 
492 1 492 0.719557 0.959751 0 -1.39039 
493 1 493 0.719546 0.999772 0 -1.85177 
494 1 494 0.76 0 0 0 
495 1 495 0.759991 0.0399799 0 0.40599 
496 1 496 0.759986 0.0799581 0 0.618731 
497 1 497 0.759979 0.119933 0 0.861677 
498 1 498 0.759967 0.159903 0 1.10821 
499 1 499 0.759951 0.199868 0 1.30073 
500 1 500 0.759929 0.239831 0 1.24428 
501 1 501 0.75991 0.279795 0 1.03747 
502 1 502 0.759892 0.319764 0 0.936856 
503 1 503 0.759877 0.359736 0 0.881555 
504 1 504 0.759863 0.399714 0 0.944846 
505 1 505 0.759842 0.439696 0 1.00613 
506 1 506 0.759818 0.479681 0 1.09675 
507 1 507 0.75979 0.519669 0 1.07701 
508 1 508 0.75976 0.559661 0 0.853178 
509 1 509 0.759732 0.599657 0 0.635365 
510 1 510 0.759704 0.639657 0 0.360495 
511 1 511 0.759677 0.67966 0 0.150182 
512 1 512 0.759647 0.719665 0 0.0206517 
513 1 513 0.759615 0.759674 0 -0.23919 
514 1 514 0.759591 0.799686 0 -0.239982 
515 1 515 0.759569 0.839703 0 -0.131965 
516 1 516 0.759553 0.879721 0 -0.451728 
517 1 517 0.75954 0.91974 0 -0.549608 
518 1 518 0.759517 0.959758 0 -0.744596 
519 1 519 0.759505 0.999779 0 -1.08366 
520 1 520 0.8 0 0 0 
521 1 521 0.799989 0.0399802 0 0.269733 
522 1 522 0.799986 0.0799571 0 0.542117 
523 1 523 0.799983 0.119932 0 0.868198 
524 1 524 0.799975 0.159903 0 1.33322 
525 1 525 0.799961 0.199869 0 1.77795 
526 1 526 0.799942 0.239833 0 1.94579 
527 1 527 0.799921 0.279797 0 1.96388 
528 1 528 0.7999 0.319766 0 1.87112 
529 1 529 0.799881 0.359738 0 1.71157 
530 1 530 0.79986 0.399716 0 1.4966 
531 1 531 0.799837 0.439698 0 1.21632 
532 1 532 0.799807 0.479683 0 1.10104 
533 1 533 0.799774 0.51967 0 0.956303 
534 1 534 0.799741 0.55966 0 0.715951 
535 1 535 0.799707 0.599654 0 0.520804 
536 1 536 0.799673 0.639652 0 0.26006 
537 1 537 0.799641 0.679653 0 0.113331 
538 1 538 0.799608 0.71966 0 0.0584189 
539 1 539 0.799575 0.75967 0 -0.130844 
540 1 540 0.799549 0.799685 0 -0.01678 
541 1 541 0.799524 0.839704 0 0.0162736 
542 1 542 0.799509 0.879722 0 -0.321387 
543 1 543 0.799494 0.919744 0 -0.244279 
544 1 544 0.79947 0.959765 0 -0.223241 
545 1 545 0.799457 0.999788 0 -0.410536 
546 1 546 0.84 0 0 0 
547 1 547 0.839992 0.0399785 0 0.158334 
548 1 548 0.839987 0.0799552 0 0.512029 
549 1 549 0.839984 0.119931 0 0.946806 
550 1 550 0.83998 0.159903 0 1.62235 
551 1 551 0.83997 0.19987 0 2.28718 
552 1 552 0.839953 0.239836 0 2.661 
553 1 553 0.839931 0.279802 0 2.90833 
554 1 554 0.839907 0.319771 0 2.84077 
555 1 555 0.839886 0.359743 0 2.57327 
556 1 556 0.83986 0.39972 0 2.12041 
557 1 557 0.839835 0.439701 0 1.56177 
558 1 558 0.839804 0.479683 0 1.19425 
559 1 559 0.839771 0.519667 0 0.891318 
560 1 560 0.839733 0.559655 0 0.64176 
561 1 561 0.839697 0.599648 0 0.459396 
562 1 562 0.839663 0.639647 0 0.285819 
563 1 563 0.839631 0.679651 0 0.249983 
564 1 564 0.839592 0.71966 0 0.258568 
565 1 565 0.839552 0.759672 0 0.114847 
566 1 566 0.839518 0.799688 0 0.224473 
567 1 567 0.839486 0.839707 0 0.159419 
568 1 568 0.839467 0.879727 0 -0.170047 
569 1 569 0.839448 0.919751 0 -0.00765819 
570 1 570 0.839422 0.959773 0 0.187609 
571 1 571 0.839407 0.999799 0 0.162896 
572 1 572 0.88 0 0 0 
573 1 573 0.87999 0.0399769 0 0.1635 
574 1 574 0.879986 0.0799531 0 0.617361 
575 1 575 0.879985 0.119928 0 1.09216 
576 1 576 0.879983 0.159903 0 1.83539 
577 1 577 0.879976 0.199874 0 2.63509 
578 1 578 0.879962 0.239843 0 3.18548 
579 1 579 0.879939 0.27981 0 3.62285 
580 1 580 0.879913 0.31978 0 3.60874 
581 1 581 0.879886 0.359753 0 3.26913 
582 1 582 0.879854 0.399729 0 2.59803 
583 1 583 0.879826 0.439708 0 1.78368 
584 1 584 0.879789 0.479689 0 1.17703 
585 1 585 0.879753 0.519672 0 0.807409 
586 1 586 0.879713 0.559658 0 0.620393 
587 1 587 0.879672 0.599649 0 0.449909 
588 1 588 0.87963 0.639646 0 0.366929 
589 1 589 0.87959 0.679649 0 0.388793 
590 1 590 0.879549 0.719659 0 0.452039 
591 1 591 0.879507 0.759674 0 0.404171 
592 1 592 0.87947 0.799691 0 0.474125 
593 1 593 0.879436 0.839712 0 0.30855 
594 1 594 0.879414 0.879734 0 -0.0352165 
595 1 595 0.879392 0.919759 0 0.158603 
596 1 596 0.879366 0.959783 0 0.534426 
597 1 597 0.879348 0.999811 0 0.670097 
598 1 598 0.92 0 0 0 
599 1 599 0.919992 0.0399744 0 0.226031 
600 1 600 0.919985 0.0799503 0 0.748125 
601 1 601 0.919982 0.119926 0 1.26767 
602 1 602 0.919984 0.159902 0 2.01152 
603 1 603 0.91998 0.199875 0 2.81674 
604 1 604 0.919967 0.239847 0 3.43233 
605 1 605 0.919945 0.279817 0 3.94781 
606 1 606 0.919917 0.319788 0 3.94802 
607 1 607 0.919887 0.359761 0 3.54729 
608 1 608 0.919852 0.399736 0 2.74169 
609 1 609 0.919822 0.439713 0 1.81579 
610 1 610 0.919784 0.479691 0 1.06336 
611 1 611 0.919749 0.519672 0 0.648906 
612 1 612 0.919705 0.559657 0 0.492115 
613 1 613 0.919663 0.599649 0 0.37598 
614 1 614 0.919622 0.639649 0 0.473495 
615 1 615 0.919579 0.679656 0 0.586136 
616 1 616 0.919532 0.719669 0 0.774349 
617 1 617 0.919481 0.759685 0 0.87696 
618 1 618 0.919435 0.799703 0 0.86894 
619 1 619 0.919394 0.839723 0 0.591372 
620 1 620 0.919363 0.879745 0 0.179179 
621 1 621 0.919335 0.91977 0 0.279761 
622 1 622 0.919307 0.959798 0 0.708213 
623 1 623 0.919285 0.999828 0 0.926418 
624 1 624 0.96 0 0 0 
625 1 625 0.959989 0.0399715 0 0.403514 
626 1 626 0.959982 0.079946 0 0.995146 
627 1 627 0.959979 0.119921 0 1.4777 
628 1 628 0.959981 0.159898 0 2.07359 
629 1 629 0.959979 0.199874 0 2.78602 
630 1 630 0.959969 0.23985 0 3.38986 
631 1 631 0.959948 0.279823 0 3.87701 
632 1 632 0.959918 0.319796 0 3.85344 
633 1 633 0.959884 0.359769 0 3.40047 
634 1 634 0.959844 0.399745 0 2.54997 
635 1 635 0.959809 0.439722 0 1.65178 
636 1 636 0.959767 0.479701 0 0.87086 
637 1 637 0.95973 0.519684 0 0.489731 
638 1 638 0.959684 0.55967 0 0.382245 
639 1 639 0.959637 0.599661 0 0.319439 
640 1 640 0.959585 0.63966 0 0.523262 
641 1 641 0.959533 0.679666 0 0.654775 
642 1 642 0.959482 0.719679 0 0.948893 
643 1 643 0.95943 0.759697 0 1.143 
644 1 644 0.959381 0.799717 0 1.03004 
645 1 645 0.959338 0.839737 0 0.73402 
646 1 646 0.959301 0.87976 0 0.371192 
647 1 647 0.95927 0.919786 0 0.42697 
648 1 648 0.959239 0.959816 0 0.883681 
649 1 649 0.959212 0.999849 0 1.15064 
650 1 650 1 0 0 0 
651 1 651 0.999989 0.0399687 0 0.533686 
652 1 652 0.999979 0.0799409 0 1.19144 
653 1 653 0.999973 0.119915 0 1.67325 
654 1 654 0.999977 0.159892 0 2.08747 
655 1 655 0.999977 0.199869 0 2.62822 
656 1 656 0.999968 0.239847 0 3.17066 
657 1 657 0.999948 0.279824 0 3.60654 
658 1 658 0.999917 0.319799 0 3.54307 
659 1 659 0.999881 0.359774 0 3.0381 
660 1 660 0.99984 0.39975 0 2.20161 
661 1 661 0.999802 0.439728 0 1.37702 
662 1 662 0.99976 0.479708 0 0.580445 
663 1 663 0.999722 0.519692 0 0.181607 
664 1 664 0.999672 0.55968 0 0.053744 
665 1 665 0.999625 0.599675 0 0.0425367 
666 1 666 0.999573 0.639678 0 0.332847 
667 1 667 0.99952 0.679688 0 0.536731 
668 1 668 0.999462 0.719703 0 0.992462 
669 1 669 0.999401 0.75972 0 1.27566 
670 1 670 0.999344 0.799739 0 1.17944 
671 1 671 0.999292 0.839758 0 0.982516 
672 1 672 0.999244 0.879782 0 0.627499 
673 1 673 0.999205 0.919808 0 0.522084 
674 1 674 0.999169 0.95984 0 0.92492 
675 1 675 0.999136 0.999874 0 1.21802 
676 1 676 1.04 0 0 0 
677 1 677 1.03999 0.039967 0 0.573967 
678 1 678 1.03998 0.0799367 0 1.28157 
679 1 679 1.03997 0.119909 0 1.87395 
680 1 680 1.03997 0.159885 0 2.23825 
681 1 681 1.03997 0.199865 0 2.62404 
682 1 682 1.03996 0.239845 0 3.02069 
683 1 683 1.03994 0.279824 0 3.29431 
684 1 684 1.03991 0.319803 0 3.13158 
685 1 685 1.03987 0.35978 0 2.60931 
686 1 686 1.03983 0.399758 0 1.84129 
687 1 687 1.03978 0.439737 0 1.10372 
688 1 688 1.03974 0.479721 0 0.354157 
689 1 689 1.03969 0.519709 0 -0.0279638 
690 1 690 1.03964 0.559701 0 -0.195812 
691 1 691 1.03959 0.599698 0 -0.175036 
692 1 692 1.03953 0.6397 0 0.0939573 
693 1 693 1.03947 0.679709 0 0.289371 
694 1 694 1.0394 0.719723 0 0.83211 
695 1 695 1.03934 0.759742 0 1.1677 
696 1 696 1.03929 0.799761 0 1.1602 
697 1 697 1.03923 0.839781 0 1.04429 
698 1 698 1.03918 0.879807 0 0.726008 
699 1 699 1.03913 0.919835 0 0.598585 
700 1 700 1.03909 0.959869 0 1.00027 
701 1 701 1.03906 0.999905 0 1.315 
702 1 702 1.08 0 0 0 
703 1 703 1.07999 0.0399658 0 0.654763 
704 1 704 1.07997 0.0799342 0 1.43109 
705 1 705 1.07996 0.119906 0 2.07976 
706 1 706 1.07996 0.159882 0 2.38773 
707 1 707 1.07996 0.199862 0 2.69432 
708 1 708 1.07995 0.239845 0 3.0161 
709 1 709 1.07993 0.279826 0 3.16231 
710 1 710 1.0799 0.319806 0 2.89291 
711 1 711 1.07986 0.359784 0 2.34026 
712 1 712 1.07982 0.399764 0 1.66156 
713 1 713 1.07977 0.439744 0 1.05307 
714 1 714 1.07972 0.479729 0 0.392485 
715 1 715 1.07968 0.519718 0 -0.0328386 
716 1 716 1.07962 0.559714 0 -0.363724 
717 1 717 1.07957 0.599716 0 -0.409099 
718 1 718 1.07951 0.639723 0 -0.206564 
719 1 719 1.07945 0.679736 0 0.0284566 
720 1 720 1.07938 0.719752 0 0.604512 
721 1 721 1.07931 0.75977 0 0.9175 
722 1 722 1.07924 0.799789 0 1.03857 
723 1 723 1.07918 0.839811 0 1.03991 
724 1 724 1.07912 0.879836 0 0.863764 
725 1 725 1.07906 0.919867 0 0.732515 
726 1 726 1.07902 0.959902 0 1.01801 
727 1 727 1.07898 0.99994 0 1.31164 
728 1 728 1.12 0 0 0 
729 1 729 1.11998 0.0399668 0 0.526768 
730 1 730 1.11997 0.0799354 0 1.39265 
731 1 731 1.11996 0.119908 0 2.28211 
732 1 732 1.11995 0.159885 0 2.71394 
733 1 733 1.11995 0.199866 0 2.9637 
734 1 734 1.11994 0.23985 0 3.18012 
735 1 735 1.11992 0.279834 0 3.25378 
736 1 736 1.11989 0.319815 0 2.96215 
737 1 737 1.11985 0.359794 0 2.43527 
738 1 738 1.1198 0.399774 0 1.82955 
739 1 739 1.11974 0.439756 0 1.26927 
740 1 740 1.11969 0.479743 0 0.61054 
741 1 741 1.11964 0.519736 0 0.100254 
742 1 742 1.11958 0.559735 0 -0.339532 
743 1 743 1.11952 0.599738 0 -0.426677 
744 1 744 1.11945 0.639745 0 -0.35642 
745 1 745 1.11938 0.679757 0 -0.17225 
746 1 746 1.11931 0.719774 0 0.326345 
747 1 747 1.11924 0.759794 0 0.623161 
748 1 748 1.11918 0.799815 0 0.887499 
749 1 749 1.11911 0.83984 0 0.915303 
750 1 750 1.11904 0.879868 0 0.878825 
751 1 751 1.11898 0.919902 0 0.763671 
752 1 752 1.11894 0.959939 0 1.00477 
753 1 753 1.11889 0.999977 0 1.37144 
754 1 754 1.16 0 0 0 
755 1 755 1.15998 0.0399675 0 0.478195 
756 1 756 1.15997 0.0799377 0 1.38159 
757 1 757 1.15995 0.119912 0 2.4123 
758 1 758 1.15994 0.159891 0 2.99721 
759 1 759 1.15993 0.199874 0 3.28027 
760 1 760 1.15992 0.239859 0 3.46406 
761 1 761 1.15991 0.279844 0 3.464 
762 1 762 1.15987 0.319826 0 3.09417 
763 1 763 1.15983 0.359807 0 2.58999 
764 1 764 1.15978 0.399787 0 2.10906 
765 1 765 1.15973 0.439768 0 1.69179 
766 1 766 1.15967 0.479755 0 1.12217 
767 1 767 1.15961 0.519747 0 0.551842 
768 1 768 1.15955 0.559748 0 -0.0405819 
769 1 769 1.15949 0.599755 0 -0.252625 
770 1 770 1.15942 0.639769 0 -0.312758 
771 1 771 1.15935 0.679785 0 -0.165857 
772 1 772 1.15927 0.719804 0 0.175905 
773 1 773 1.1592 0.759825 0 0.363972 
774 1 774 1.15913 0.799848 0 0.658808 
775 1 775 1.15905 0.839875 0 0.673012 
776 1 776 1.15898 0.879905 0 0.85447 
777 1 777 1.15891 0.91994 0 0.815901 
778 1 778 1.15886 0.959978 0 1.10273 
779 1 779 1.15882 1.00002 0 1.62084 
780 1 780 1.2 0 0 0 
781 1 781 1.19997 0.0399696 0 0.450346 
782 1 782 1.19996 0.0799423 0 1.37787 