ITEM: TIMESTEP
0
ITEM: NUMBER OF ATOMS
6875
ITEM: BOX BOUNDS sm sm sm
0 4
0 2
0 0
ITEM: ATOMS id type tag x y z damage s11 s22 s33 s12 s13 s23 vx T ienergy 
1 1 1 0.0199928 0.0199957 0 0 -0.107674 -0.107308 -0.0689084 -0.0385811 0 0 -0.20339 0 0 
2 1 2 0.0199863 0.0599885 0 0 -0.184807 -0.113297 -0.0955678 -0.0531172 0 0 -0.154872 0 0 
3 1 3 0.0199854 0.0999859 0 0 -0.215677 -0.117637 -0.106872 -0.0654481 0 0 0.00867835 0 0 
4 1 4 0.0199859 0.139983 0 0 -0.231256 -0.117137 -0.111713 -0.0710353 0 0 0.186752 0 0 
5 1 5 0.0199841 0.179984 0 0 -0.234961 -0.108427 -0.110102 -0.0726944 0 0 0.254218 0 0 
6 1 6 0.0199838 0.219984 0 0 -0.240949 -0.104468 -0.110751 -0.0689422 0 0 0.293531 0 0 
7 1 7 0.019983 0.259986 0 0 -0.245001 -0.105423 -0.112358 -0.0606588 0 0 0.193114 0 0 
8 1 8 0.019983 0.299987 0 0 -0.254967 -0.109922 -0.116999 -0.0567522 0 0 0.132878 0 0 
9 1 9 0.0199808 0.33999 0 0 -0.271006 -0.121963 -0.126014 -0.0489168 0 0 -0.0701796 0 0 
10 1 10 0.0199797 0.37999 0 0 -0.285903 -0.12971 -0.133282 -0.047644 0 0 -0.16078 0 0 
11 1 11 0.0199766 0.419992 0 0 -0.296723 -0.137234 -0.139172 -0.0409726 0 0 -0.282661 0 0 
12 1 12 0.0199734 0.459992 0 0 -0.304257 -0.141293 -0.142896 -0.0425321 0 0 -0.33499 0 0 
13 1 13 0.0199669 0.499993 0 0 -0.308235 -0.14333 -0.144829 -0.036748 0 0 -0.595656 0 0 
14 1 14 0.0199648 0.539993 0 0 -0.30439 -0.13807 -0.141908 -0.0368042 0 0 -0.499032 0 0 
15 1 15 0.0199628 0.579994 0 0 -0.29955 -0.135679 -0.139588 -0.0293837 0 0 0.0374775 0 0 
16 1 16 0.0199581 0.619993 0 0 -0.285707 -0.124218 -0.131463 -0.0257254 0 0 0.309825 0 0 
17 1 17 0.0199449 0.659995 0 0 -0.268579 -0.115372 -0.123125 -0.0147439 0 0 -0.29435 0 0 
18 1 18 0.0199392 0.699995 0 0 -0.248577 -0.100485 -0.111925 -0.00858985 0 0 -0.965977 0 0 
19 1 19 0.0199423 0.74 0 0 -0.235941 -0.0920782 -0.105171 0.00569307 0 0 -0.786062 0 0 
20 1 20 0.0199549 0.780001 0 0 -0.222476 -0.0868619 -0.0991748 0.0172107 0 0 -0.503568 0 0 
21 1 21 0.019961 0.820007 0 0 -0.21019 -0.0715781 -0.0903259 0.0319455 0 0 -0.334308 0 0 
22 1 22 0.0199696 0.86001 0 0 -0.198398 -0.071511 -0.0865208 0.051924 0 0 -0.479373 0 0 
23 1 23 0.0199734 0.900016 0 0 -0.207686 -0.0663668 -0.0878491 0.0591108 0 0 0.3081 0 0 
24 1 24 0.0199785 0.940018 0 0 -0.231207 -0.0996706 -0.106094 0.0854884 0 0 -0.211768 0 0 
25 1 25 0.0199699 0.980029 0 0 -0.289714 -0.0531898 -0.119928 0.0666097 0 0 -0.201326 0 0 
26 1 26 0.0599899 0.01999 0 0 -0.115177 -0.18049 -0.0947915 -0.0534102 0 0 -0.0501186 0 0 
27 1 27 0.0599755 0.0599729 0 0 -0.160774 -0.152889 -0.100566 -0.0387596 0 0 0.15454 0 0 
28 1 28 0.0599642 0.0999639 0 0 -0.199472 -0.137297 -0.107977 -0.0434355 0 0 0.12211 0 0 
29 1 29 0.0599592 0.139958 0 0 -0.228183 -0.134247 -0.116212 -0.0443215 0 0 0.34076 0 0 
30 1 30 0.0599557 0.179956 0 0 -0.245687 -0.116836 -0.116246 -0.049511 0 0 0.503348 0 0 
31 1 31 0.0599544 0.219956 0 0 -0.25786 -0.110049 -0.117976 -0.0506485 0 0 0.591945 0 0 
32 1 32 0.0599519 0.259959 0 0 -0.266173 -0.107798 -0.119923 -0.0520431 0 0 0.4142 0 0 
33 1 33 0.0599511 0.299961 0 0 -0.275373 -0.113677 -0.12476 -0.0581277 0 0 0.230485 0 0 
34 1 34 0.0599485 0.339964 0 0 -0.282473 -0.117931 -0.128406 -0.0560883 0 0 -0.157163 0 0 
35 1 35 0.0599482 0.379965 0 0 -0.291787 -0.127221 -0.134377 -0.0578704 0 0 -0.307092 0 0 
36 1 36 0.0599472 0.419968 0 0 -0.297956 -0.126188 -0.136024 -0.0498539 0 0 -0.588063 0 0 
37 1 37 0.0599507 0.459969 0 0 -0.304438 -0.135886 -0.141223 -0.0481398 0 0 -0.612887 0 0 
38 1 38 0.0599542 0.499971 0 0 -0.304461 -0.125756 -0.137979 -0.0393991 0 0 -0.32885 0 0 
39 1 39 0.0599586 0.539973 0 0 -0.30658 -0.130862 -0.140299 -0.0322978 0 0 -0.0603807 0 0 
40 1 40 0.0599598 0.579977 0 0 -0.296923 -0.112308 -0.13124 -0.0257077 0 0 -0.164419 0 0 
41 1 41 0.0599688 0.619983 0 0 -0.29031 -0.10845 -0.127879 -0.0133393 0 0 -0.217842 0 0 
42 1 42 0.0599832 0.65999 0 0 -0.282668 -0.0902698 -0.119588 -0.00721619 0 0 0.867459 0 0 
43 1 43 0.0599944 0.699997 0 0 -0.282668 -0.098604 -0.122265 0.00497562 0 0 1.60752 0 0 
44 1 44 0.0599923 0.740005 0 0 -0.25234 -0.056896 -0.0991424 0.0078033 0 0 2.0152 0 0 
45 1 45 0.0599846 0.780013 0 0 -0.260654 -0.0855945 -0.111021 0.0215578 0 0 1.45711 0 0 
46 1 46 0.0599783 0.820021 0 0 -0.229322 -0.0307945 -0.0833779 0.0201758 0 0 1.8461 0 0 
47 1 47 0.0599735 0.860032 0 0 -0.256502 -0.0706327 -0.104891 0.0390114 0 0 1.34546 0 0 
48 1 48 0.0599676 0.90004 0 0 -0.213117 -0.0282077 -0.0773443 0.0298565 0 0 1.32743 0 0 
49 1 49 0.0599581 0.940054 0 0 -0.258833 -0.0348424 -0.0941511 0.0508909 0 0 0.543066 0 0 
50 1 50 0.0599402 0.980071 0 0 -0.215576 0.0256915 -0.0608611 -0.0027168 0 0 0.845744 0 0 
51 1 51 0.0999818 0.0199884 0 0 -0.117524 -0.19884 -0.101448 -0.0685735 0 0 -0.102941 0 0 
52 1 52 0.0999558 0.0599686 0 0 -0.155899 -0.180307 -0.107807 -0.0436036 0 0 0.0660667 0 0 
53 1 53 0.0999417 0.0999543 0 0 -0.191059 -0.158328 -0.112028 -0.0378793 0 0 0.157492 0 0 
54 1 54 0.0999324 0.139945 0 0 -0.229872 -0.15433 -0.123204 -0.0361628 0 0 0.394826 0 0 
55 1 55 0.0999234 0.17994 0 0 -0.256037 -0.13804 -0.126379 -0.0412167 0 0 0.56036 0 0 
56 1 56 0.0999179 0.219939 0 0 -0.275041 -0.133408 -0.130995 -0.0378194 0 0 0.63159 0 0 
57 1 57 0.099915 0.259939 0 0 -0.282035 -0.128025 -0.131514 -0.0429997 0 0 0.534737 0 0 
58 1 58 0.0999125 0.29994 0 0 -0.285475 -0.12609 -0.131994 -0.0477 0 0 0.351358 0 0 
59 1 59 0.099909 0.339942 0 0 -0.287357 -0.123337 -0.131715 -0.0511496 0 0 0.00497699 0 0 
60 1 60 0.0999051 0.379944 0 0 -0.293751 -0.12466 -0.13419 -0.0533483 0 0 -0.358621 0 0 
61 1 61 0.0999005 0.419948 0 0 -0.296903 -0.116717 -0.132649 -0.0497885 0 0 -0.609792 0 0 
62 1 62 0.0998953 0.459952 0 0 -0.306429 -0.122791 -0.137661 -0.043854 0 0 -0.701862 0 0 
63 1 63 0.0998886 0.499957 0 0 -0.299424 -0.105872 -0.12998 -0.0392585 0 0 -0.671864 0 0 
64 1 64 0.0998854 0.539962 0 0 -0.304424 -0.109069 -0.13261 -0.0256855 0 0 -0.522951 0 0 
65 1 65 0.0998846 0.579968 0 0 -0.300938 -0.0936792 -0.126546 -0.0222396 0 0 0.183427 0 0 
66 1 66 0.0998796 0.619975 0 0 -0.306147 -0.0922336 -0.127758 -0.00593875 0 0 0.297468 0 0 
67 1 67 0.0998695 0.659983 0 0 -0.28521 -0.0697545 -0.113818 -0.00448952 0 0 -0.0570929 0 0 
68 1 68 0.0998644 0.699992 0 0 -0.277336 -0.0737852 -0.112587 0.0109571 0 0 -0.762293 0 0 
69 1 69 0.0998723 0.740003 0 0 -0.259568 -0.0445616 -0.0975056 0.00733706 0 0 -0.0583209 0 0 
70 1 70 0.0998848 0.780015 0 0 -0.268143 -0.0675674 -0.107643 0.0171359 0 0 0.464729 0 0 
71 1 71 0.0998945 0.820027 0 0 -0.248698 -0.0304276 -0.0894816 0.0101864 0 0 0.895373 0 0 
72 1 72 0.0999012 0.86004 0 0 -0.246278 -0.0422075 -0.092494 0.018625 0 0 0.732849 0 0 
73 1 73 0.099908 0.900055 0 0 -0.258489 -0.025445 -0.0910227 0.0188275 0 0 0.933871 0 0 
74 1 74 0.0999053 0.940071 0 0 -0.231966 0.00416605 -0.0730157 -0.0104735 0 0 0.762367 0 0 
75 1 75 0.0998936 0.980088 0 0 -0.200701 -0.00280597 -0.0652281 -0.00907514 0 0 0.278287 0 0 
76 1 76 0.139982 0.0199881 0 0 -0.114975 -0.203116 -0.101999 -0.0821066 0 0 -0.0169867 0 0 
77 1 77 0.139952 0.059966 0 0 -0.151908 -0.192401 -0.110406 -0.0588914 0 0 0.101485 0 0 
78 1 78 0.139926 0.0999494 0 0 -0.190837 -0.180057 -0.118942 -0.0519255 0 0 0.0287336 0 0 
79 1 79 0.139909 0.139937 0 0 -0.227164 -0.168603 -0.126923 -0.046017 0 0 0.399252 0 0 
80 1 80 0.139896 0.179929 0 0 -0.252966 -0.155027 -0.130847 -0.0457367 0 0 0.782493 0 0 
81 1 81 0.139887 0.219925 0 0 -0.270137 -0.144582 -0.133007 -0.0364254 0 0 0.842 0 0 
82 1 82 0.139882 0.259923 0 0 -0.287681 -0.144246 -0.138534 -0.0366776 0 0 0.800089 0 0 
83 1 83 0.139878 0.299922 0 0 -0.292075 -0.132504 -0.136177 -0.0352812 0 0 0.487546 0 0 
84 1 84 0.139875 0.339923 0 0 -0.301654 -0.136731 -0.140612 -0.0372194 0 0 0.132729 0 0 
85 1 85 0.139872 0.379924 0 0 -0.304371 -0.124421 -0.137527 -0.0373887 0 0 -0.188927 0 0 
86 1 86 0.139869 0.419928 0 0 -0.307644 -0.120045 -0.137168 -0.0337306 0 0 -0.418321 0 0 
87 1 87 0.139871 0.459932 0 0 -0.306037 -0.107758 -0.132707 -0.0295169 0 0 -0.459003 0 0 
88 1 88 0.139874 0.499939 0 0 -0.31007 -0.101663 -0.132046 -0.0260705 0 0 -0.125887 0 0 
89 1 89 0.139876 0.539946 0 0 -0.314992 -0.0956498 -0.131695 -0.0200771 0 0 0.168829 0 0 
90 1 90 0.139877 0.579957 0 0 -0.308788 -0.0847006 -0.126185 -0.0164683 0 0 -0.0586208 0 0 
91 1 91 0.139886 0.619968 0 0 -0.303354 -0.0781132 -0.122328 -0.0106201 0 0 -0.0843581 0 0 
92 1 92 0.139901 0.659981 0 0 -0.312164 -0.0712595 -0.122956 -0.00743756 0 0 0.837305 0 0 
93 1 93 0.139914 0.699993 0 0 -0.321331 -0.0807365 -0.128946 -0.00220215 0 0 1.74029 0 0 
94 1 94 0.139913 0.740006 0 0 -0.304585 -0.0604138 -0.117045 -0.00290418 0 0 2.37117 0 0 
95 1 95 0.139908 0.780018 0 0 -0.297108 -0.0654141 -0.116253 0.000519268 0 0 2.36348 0 0 
96 1 96 0.139902 0.820031 0 0 -0.27854 -0.0408264 -0.102398 -0.00111161 0 0 2.89628 0 0 
97 1 97 0.139899 0.860045 0 0 -0.282192 -0.0456732 -0.105126 0.00528292 0 0 2.76519 0 0 
98 1 98 0.139891 0.900061 0 0 -0.25379 -0.00612469 -0.0833151 -0.00726725 0 0 2.17865 0 0 
99 1 99 0.139882 0.940077 0 0 -0.251529 -0.0303534 -0.0903792 -0.00749655 0 0 1.28618 0 0 
100 1 100 0.139872 0.980093 0 0 -0.215705 0.0148696 -0.0643777 -0.0222829 0 0 1.36492 0 0 
101 1 101 0.179976 0.0199879 0 0 -0.107299 -0.203502 -0.099646 -0.0928668 0 0 -0.129624 0 0 
102 1 102 0.179937 0.0599645 0 0 -0.139945 -0.202297 -0.109741 -0.074103 0 0 -0.0767429 0 0 
103 1 103 0.179908 0.0999453 0 0 -0.176548 -0.18836 -0.117024 -0.0651234 0 0 -0.0246669 0 0 
104 1 104 0.179886 0.139931 0 0 -0.21191 -0.17225 -0.1232 -0.0572684 0 0 0.347676 0 0 
105 1 105 0.179865 0.179921 0 0 -0.248466 -0.165115 -0.132642 -0.0509851 0 0 0.600568 0 0 
106 1 106 0.179852 0.219916 0 0 -0.273336 -0.152978 -0.136725 -0.0365228 0 0 0.737847 0 0 
107 1 107 0.179844 0.259913 0 0 -0.292789 -0.149449 -0.141841 -0.0323265 0 0 0.802594 0 0 
108 1 108 0.179838 0.299912 0 0 -0.299973 -0.136672 -0.140052 -0.0261718 0 0 0.494227 0 0 
109 1 109 0.179833 0.339914 0 0 -0.310337 -0.137875 -0.143772 -0.0284302 0 0 0.330327 0 0 
110 1 110 0.179827 0.379916 0 0 -0.308666 -0.123519 -0.138621 -0.0250781 0 0 0.0186687 0 0 
111 1 111 0.17982 0.419921 0 0 -0.310899 -0.117579 -0.137423 -0.0228164 0 0 -0.167908 0 0 
112 1 112 0.179813 0.459927 0 0 -0.317064 -0.111475 -0.137442 -0.0198593 0 0 -0.124126 0 0 
113 1 113 0.179805 0.499934 0 0 -0.311233 -0.0955859 -0.13047 -0.0188947 0 0 -0.212404 0 0 
114 1 114 0.179801 0.539943 0 0 -0.309908 -0.0955275 -0.130024 -0.0154584 0 0 -0.00689296 0 0 
115 1 115 0.179799 0.579952 0 0 -0.31033 -0.0760154 -0.123895 -0.0157636 0 0 0.425895 0 0 
116 1 116 0.179793 0.619961 0 0 -0.324847 -0.091622 -0.13357 -0.00941193 0 0 0.488589 0 0 
117 1 117 0.179783 0.659971 0 0 -0.297893 -0.0580276 -0.114129 -0.00977138 0 0 0.0111002 0 0 
118 1 118 0.179778 0.699983 0 0 -0.289985 -0.0652201 -0.113904 -0.000783993 0 0 -0.647134 0 0 
119 1 119 0.179787 0.739996 0 0 -0.284373 -0.0454746 -0.105763 -0.00754381 0 0 0.247969 0 0 
120 1 120 0.179801 0.78001 0 0 -0.298627 -0.0604607 -0.115151 -0.00243922 0 0 0.985472 0 0 
121 1 121 0.179812 0.820025 0 0 -0.28678 -0.0370541 -0.103831 -0.00967716 0 0 1.58844 0 0 
122 1 122 0.17982 0.860041 0 0 -0.286987 -0.0436167 -0.106001 -0.00767282 0 0 1.69448 0 0 
123 1 123 0.179827 0.900057 0 0 -0.27183 -0.0125146 -0.0911547 -0.0138562 0 0 2.0331 0 0 
124 1 124 0.179828 0.940075 0 0 -0.263351 -0.021867 -0.0914584 -0.0186799 0 0 1.44705 0 0 
125 1 125 0.179825 0.980091 0 0 -0.211259 -0.000877396 -0.0680108 -0.0166676 0 0 0.971306 0 0 
126 1 126 0.219979 0.0199873 0 0 -0.104446 -0.207679 -0.100072 -0.0989701 0 0 -0.0892102 0 0 
127 1 127 0.219937 0.0599627 0 0 -0.129326 -0.205742 -0.107434 -0.0867181 0 0 -0.0677613 0 0 
128 1 128 0.219898 0.0999421 0 0 -0.164608 -0.191576 -0.114218 -0.0755772 0 0 -0.147098 0 0 
129 1 129 0.219866 0.139927 0 0 -0.203571 -0.174379 -0.121205 -0.0662173 0 0 0.300435 0 0 
130 1 130 0.219841 0.179916 0 0 -0.238108 -0.165577 -0.129464 -0.0535171 0 0 0.544266 0 0 
131 1 131 0.219823 0.219909 0 0 -0.262685 -0.151852 -0.132942 -0.0369922 0 0 0.667114 0 0 
132 1 132 0.219811 0.259906 0 0 -0.288535 -0.146709 -0.139591 -0.0300287 0 0 0.716547 0 0 
133 1 133 0.219803 0.299905 0 0 -0.30205 -0.138432 -0.141281 -0.0208925 0 0 0.440141 0 0 
134 1 134 0.219797 0.339907 0 0 -0.308987 -0.132119 -0.141489 -0.0231777 0 0 0.52827 0 0 
135 1 135 0.219791 0.379909 0 0 -0.315613 -0.126356 -0.141766 -0.0194729 0 0 0.394163 0 0 
136 1 136 0.219787 0.419914 0 0 -0.319529 -0.118704 -0.140561 -0.0192281 0 0 0.253753 0 0 
137 1 137 0.219786 0.459918 0 0 -0.31962 -0.114524 -0.139249 -0.0147269 0 0 0.291532 0 0 
138 1 138 0.219788 0.499925 0 0 -0.317137 -0.0990467 -0.133484 -0.0135126 0 0 0.514324 0 0 
139 1 139 0.21979 0.539933 0 0 -0.327514 -0.107992 -0.139686 -0.0107254 0 0 0.630075 0 0 
140 1 140 0.21979 0.579943 0 0 -0.309461 -0.0829887 -0.12586 -0.0135819 0 0 0.316204 0 0 
141 1 141 0.219797 0.619954 0 0 -0.308816 -0.0862006 -0.126686 -0.0121187 0 0 0.0143562 0 0 
142 1 142 0.219812 0.659966 0 0 -0.323752 -0.080211 -0.129555 -0.0143213 0 0 0.874908 0 0 
143 1 143 0.219824 0.699978 0 0 -0.34465 -0.084868 -0.137761 -0.0102465 0 0 1.84339 0 0 
144 1 144 0.219825 0.739992 0 0 -0.339508 -0.0791646 -0.134278 -0.0150542 0 0 2.64871 0 0 
145 1 145 0.219819 0.780004 0 0 -0.320493 -0.0607517 -0.122261 -0.0117563 0 0 2.91614 0 0 
146 1 146 0.219815 0.82002 0 0 -0.318403 -0.0537383 -0.119334 -0.0174036 0 0 3.61737 0 0 
147 1 147 0.219811 0.860034 0 0 -0.318128 -0.0546357 -0.119536 -0.0128247 0 0 3.47737 0 0 
148 1 148 0.219806 0.900052 0 0 -0.285499 -0.0144457 -0.0961597 -0.0198475 0 0 2.87467 0 0 
149 1 149 0.219801 0.940069 0 0 -0.269281 -0.0264011 -0.0948167 -0.0169741 0 0 2.07356 0 0 
150 1 150 0.2198 0.980087 0 0 -0.243359 0.00112961 -0.0776653 -0.0157865 0 0 2.07234 0 0 
151 1 151 0.259974 0.0199873 0 0 -0.104073 -0.21123 -0.101096 -0.102006 0 0 -0.14188 0 0 
152 1 152 0.259926 0.0599623 0 0 -0.125482 -0.204122 -0.105679 -0.0975287 0 0 -0.127666 0 0 
153 1 153 0.259884 0.0999416 0 0 -0.159874 -0.19135 -0.112621 -0.0854014 0 0 -0.217311 0 0 
154 1 154 0.259847 0.139925 0 0 -0.188026 -0.170434 -0.114944 -0.074955 0 0 0.165213 0 0 
155 1 155 0.259814 0.179915 0 0 -0.218349 -0.1586 -0.120879 -0.0586325 0 0 0.270532 0 0 
156 1 156 0.259791 0.219907 0 0 -0.248853 -0.15112 -0.128264 -0.0429391 0 0 0.419019 0 0 
157 1 157 0.259774 0.259904 0 0 -0.271669 -0.139477 -0.13185 -0.0337007 0 0 0.511515 0 0 
158 1 158 0.259763 0.299903 0 0 -0.293978 -0.138046 -0.13856 -0.0232844 0 0 0.343482 0 0 
159 1 159 0.259753 0.339905 0 0 -0.313051 -0.133064 -0.143091 -0.0267233 0 0 0.511969 0 0 
160 1 160 0.259744 0.379908 0 0 -0.323226 -0.1331 -0.146374 -0.0213469 0 0 0.349247 0 0 
161 1 161 0.259736 0.419912 0 0 -0.324613 -0.121539 -0.143107 -0.0237151 0 0 0.485219 0 0 
162 1 162 0.259727 0.459918 0 0 -0.33268 -0.122248 -0.14593 -0.0174636 0 0 0.607942 0 0 
163 1 163 0.259718 0.499925 0 0 -0.320747 -0.105342 -0.136671 -0.0174861 0 0 0.435775 0 0 
164 1 164 0.259713 0.539932 0 0 -0.316787 -0.106711 -0.135834 -0.0151643 0 0 0.345879 0 0 
165 1 165 0.259711 0.579939 0 0 -0.321546 -0.095239 -0.133675 -0.0154955 0 0 0.727902 0 0 
166 1 166 0.259705 0.619947 0 0 -0.332014 -0.102821 -0.13947 -0.0103744 0 0 0.747582 0 0 
167 1 167 0.259693 0.659955 0 0 -0.305063 -0.0762553 -0.122284 -0.00999721 0 0 0.248631 0 0 
168 1 168 0.259688 0.699966 0 0 -0.286229 -0.0626622 -0.111874 -0.00464664 0 0 -0.33451 0 0 
169 1 169 0.259696 0.739978 0 0 -0.293155 -0.0565409 -0.112133 -0.00938769 0 0 0.512795 0 0 
170 1 170 0.25971 0.779992 0 0 -0.308838 -0.0609735 -0.11859 -0.00705455 0 0 1.3653 0 0 
171 1 171 0.259721 0.820007 0 0 -0.294845 -0.0401439 -0.107407 -0.0170909 0 0 2.16418 0 0 
172 1 172 0.259729 0.860024 0 0 -0.297519 -0.0445334 -0.10968 -0.0155031 0 0 2.28665 0 0 
173 1 173 0.259737 0.900041 0 0 -0.297866 -0.022576 -0.102739 -0.0199001 0 0 2.49144 0 0 
174 1 174 0.259744 0.94006 0 0 -0.29604 -0.030763 -0.104804 -0.013502 0 0 2.09451 0 0 
175 1 175 0.259748 0.980078 0 0 -0.250052 0.00299484 -0.0792119 -0.0101995 0 0 1.76152 0 0 
176 1 176 0.299977 0.019987 0 0 -0.113966 -0.216951 -0.106108 -0.107208 0 0 -0.00888473 0 0 
177 1 177 0.299927 0.0599622 0 0 -0.133554 -0.203383 -0.108035 -0.108549 0 0 0.116304 0 0 
178 1 178 0.299875 0.099942 0 0 -0.157771 -0.188126 -0.11091 -0.0961729 0 0 -0.0647844 0 0 
179 1 179 0.29983 0.139926 0 0 -0.185596 -0.171164 -0.114397 -0.084671 0 0 0.17611 0 0 
180 1 180 0.299794 0.179914 0 0 -0.214505 -0.163242 -0.121135 -0.0676302 0 0 0.157874 0 0 
181 1 181 0.299766 0.219906 0 0 -0.240611 -0.153299 -0.12632 -0.0533088 0 0 0.208729 0 0 
182 1 182 0.299744 0.259901 0 0 -0.266988 -0.143528 -0.131649 -0.0428387 0 0 0.187065 0 0 
183 1 183 0.299729 0.299899 0 0 -0.291516 -0.142472 -0.139187 -0.0324639 0 0 0.0627835 0 0 
184 1 184 0.299717 0.3399 0 0 -0.305501 -0.133114 -0.140675 -0.0350559 0 0 0.379479 0 0 
185 1 185 0.299708 0.379902 0 0 -0.321028 -0.135216 -0.146339 -0.0257571 0 0 0.588556 0 0 
186 1 186 0.299701 0.419905 0 0 -0.326317 -0.124537 -0.144613 -0.0289975 0 0 0.907447 0 0 
187 1 187 0.299699 0.459909 0 0 -0.330029 -0.124801 -0.145898 -0.0194244 0 0 0.904868 0 0 
188 1 188 0.299701 0.499915 0 0 -0.330309 -0.112225 -0.141953 -0.0185905 0 0 1.03732 0 0 
189 1 189 0.299702 0.539922 0 0 -0.33713 -0.120988 -0.146953 -0.0137677 0 0 0.950447 0 0 
190 1 190 0.299703 0.57993 0 0 -0.307425 -0.0911691 -0.127833 -0.0168011 0 0 0.611738 0 0 
191 1 191 0.299709 0.61994 0 0 -0.29965 -0.0932786 -0.126013 -0.0142655 0 0 0.310008 0 0 
192 1 192 0.299724 0.65995 0 0 -0.319316 -0.0886924 -0.130853 -0.0192762 0 0 1.36071 0 0 
193 1 193 0.299734 0.699961 0 0 -0.35139 -0.0970592 -0.14384 -0.0161589 0 0 2.3764 0 0 
194 1 194 0.299733 0.739973 0 0 -0.3449 -0.0841805 -0.13762 -0.0186033 0 0 2.95366 0 0 
195 1 195 0.299727 0.779985 0 0 -0.329581 -0.0701544 -0.128197 -0.0146139 0 0 3.11655 0 0 
196 1 196 0.299722 0.82 0 0 -0.336568 -0.0667113 -0.12933 -0.0188647 0 0 3.69395 0 0 
197 1 197 0.299719 0.860014 0 0 -0.331519 -0.0564959 -0.124438 -0.0181357 0 0 3.61795 0 0 
198 1 198 0.299714 0.900032 0 0 -0.302942 -0.0266912 -0.105692 -0.0193866 0 0 3.10516 0 0 
199 1 199 0.299713 0.94005 0 0 -0.293089 -0.0246201 -0.101885 -0.00980841 0 0 2.61125 0 0 
200 1 200 0.299718 0.98007 0 0 -0.283397 -0.000676138 -0.0910867 -0.00519475 0 0 2.91303 0 0 
201 1 201 0.33997 0.0199872 0 0 -0.114921 -0.21708 -0.106456 -0.115161 0 0 -0.0483143 0 0 
202 1 202 0.339914 0.0599629 0 0 -0.136226 -0.199506 -0.107649 -0.118936 0 0 0.181881 0 0 
203 1 203 0.339861 0.0999436 0 0 -0.163319 -0.186811 -0.11227 -0.107226 0 0 0.101227 0 0 
204 1 204 0.339813 0.139927 0 0 -0.187241 -0.175463 -0.116305 -0.0964836 0 0 0.173991 0 0 
205 1 205 0.33977 0.179915 0 0 -0.210749 -0.168559 -0.121637 -0.0774291 0 0 0.0322798 0 0 
206 1 206 0.339737 0.219906 0 0 -0.235432 -0.159273 -0.126578 -0.0651453 0 0 0.0802989 0 0 
207 1 207 0.33971 0.2599 0 0 -0.259685 -0.150796 -0.13164 -0.0537277 0 0 -0.0569907 0 0 
208 1 208 0.339691 0.299896 0 0 -0.288118 -0.150832 -0.14078 -0.0449957 0 0 0.021046 0 0 
209 1 209 0.339675 0.339896 0 0 -0.306767 -0.138336 -0.142758 -0.0452527 0 0 0.502301 0 0 
210 1 210 0.339662 0.379897 0 0 -0.320447 -0.142343 -0.148437 -0.0358548 0 0 0.757621 0 0 
211 1 211 0.33965 0.419901 0 0 -0.325476 -0.126045 -0.144822 -0.0417234 0 0 1.16754 0 0 
212 1 212 0.339639 0.459905 0 0 -0.340602 -0.136478 -0.153037 -0.0290493 0 0 1.00741 0 0 
213 1 213 0.33963 0.499911 0 0 -0.322439 -0.108757 -0.138306 -0.0293127 0 0 0.835234 0 0 
214 1 214 0.339625 0.539917 0 0 -0.319994 -0.114595 -0.139392 -0.0226239 0 0 0.469681 0 0 
215 1 215 0.339624 0.579924 0 0 -0.326639 -0.103741 -0.138038 -0.0233036 0 0 0.898126 0 0 
216 1 216 0.339618 0.61993 0 0 -0.337179 -0.108851 -0.143065 -0.0169997 0 0 0.97875 0 0 
217 1 217 0.339606 0.659938 0 0 -0.305 -0.0853 -0.125169 -0.015571 0 0 0.56483 0 0 
218 1 218 0.339599 0.699947 0 0 -0.269559 -0.0589442 -0.105333 -0.010245 0 0 0.119017 0 0 
219 1 219 0.339605 0.739959 0 0 -0.280792 -0.0575232 -0.108481 -0.0123341 0 0 0.772383 0 0 
220 1 220 0.339618 0.779972 0 0 -0.298742 -0.0549507 -0.113417 -0.0100838 0 0 1.50287 0 0 
221 1 221 0.339628 0.819987 0 0 -0.290142 -0.0464221 -0.107916 -0.016105 0 0 2.03983 0 0 
222 1 222 0.339636 0.860003 0 0 -0.292012 -0.0388661 -0.106101 -0.0157711 0 0 2.13854 0 0 
223 1 223 0.339644 0.90002 0 0 -0.308688 -0.0279942 -0.10796 -0.0189367 0 0 2.49359 0 0 
224 1 224 0.339651 0.94004 0 0 -0.316429 -0.0292021 -0.110847 -0.00608132 0 0 2.53869 0 0 
225 1 225 0.339659 0.980061 0 0 -0.287045 0.0065671 -0.0899309 -0.00026341 0 0 2.58376 0 0 
226 1 226 0.379972 0.0199872 0 0 -0.123202 -0.218729 -0.109641 -0.125768 0 0 0.0802491 0 0 
227 1 227 0.379913 0.0599632 0 0 -0.149376 -0.203078 -0.113015 -0.12924 0 0 0.388866 0 0 
228 1 228 0.379851 0.0999441 0 0 -0.171043 -0.190671 -0.115988 -0.119224 0 0 0.206986 0 0 
229 1 229 0.379796 0.139927 0 0 -0.195515 -0.186802 -0.122602 -0.108875 0 0 0.273404 0 0 
230 1 230 0.379751 0.179914 0 0 -0.214446 -0.176017 -0.125221 -0.0906583 0 0 0.198386 0 0 
231 1 231 0.379714 0.219903 0 0 -0.238929 -0.173332 -0.13222 -0.0807888 0 0 0.236458 0 0 
232 1 232 0.379682 0.259895 0 0 -0.263881 -0.163685 -0.137131 -0.0689425 0 0 0.0604068 0 0 
233 1 233 0.379659 0.299889 0 0 -0.289626 -0.162394 -0.144982 -0.0587371 0 0 0.233234 0 0 
234 1 234 0.37964 0.339887 0 0 -0.298977 -0.140442 -0.140937 -0.0550944 0 0 0.587646 0 0 
235 1 235 0.379626 0.379887 0 0 -0.327128 -0.156186 -0.155031 -0.0445525 0 0 0.847971 0 0 
236 1 236 0.379616 0.419888 0 0 -0.328772 -0.131778 -0.147721 -0.0491031 0 0 1.37384 0 0 
237 1 237 0.379611 0.459891 0 0 -0.332474 -0.137493 -0.150747 -0.0321001 0 0 1.217 0 0 
238 1 238 0.379613 0.499896 0 0 -0.3312 -0.117824 -0.144024 -0.0327623 0 0 1.30831 0 0 
239 1 239 0.379614 0.539902 0 0 -0.338647 -0.122107 -0.147789 -0.0257802 0 0 0.832301 0 0 
240 1 240 0.379615 0.57991 0 0 -0.309332 -0.098078 -0.13066 -0.027575 0 0 0.451089 0 0 
241 1 241 0.379622 0.619919 0 0 -0.291108 -0.085748 -0.120857 -0.0266084 0 0 0.415214 0 0 
242 1 242 0.379636 0.65993 0 0 -0.323471 -0.0923468 -0.133364 -0.0333213 0 0 1.71772 0 0 
243 1 243 0.379646 0.69994 0 0 -0.362539 -0.102406 -0.149141 -0.0275195 0 0 2.66817 0 0 
244 1 244 0.379643 0.739952 0 0 -0.351114 -0.0895541 -0.141341 -0.0291131 0 0 3.07236 0 0 
245 1 245 0.379635 0.779965 0 0 -0.331261 -0.0693802 -0.12849 -0.0226333 0 0 3.00487 0 0 
246 1 246 0.37963 0.819979 0 0 -0.339366 -0.0662086 -0.130073 -0.0222781 0 0 3.33126 0 0 
247 1 247 0.379625 0.859994 0 0 -0.335987 -0.0542444 -0.125158 -0.0216659 0 0 3.3644 0 0 
248 1 248 0.379619 0.900012 0 0 -0.313448 -0.0297943 -0.110071 -0.0188128 0 0 2.92863 0 0 
249 1 249 0.379617 0.940031 0 0 -0.312513 -0.0190674 -0.106341 -0.00824939 0 0 2.93738 0 0 
250 1 250 0.379622 0.980054 0 0 -0.328549 -0.00455744 -0.106821 -0.000475964 0 0 3.63654 0 0 
251 1 251 0.419965 0.0199875 0 0 -0.116931 -0.213509 -0.105952 -0.138527 0 0 0.0326635 0 0 
252 1 252 0.419898 0.0599637 0 0 -0.147493 -0.203961 -0.112692 -0.141884 0 0 0.373691 0 0 
253 1 253 0.419835 0.099944 0 0 -0.177622 -0.198667 -0.120666 -0.131318 0 0 0.389065 0 0 
254 1 254 0.419779 0.139926 0 0 -0.199263 -0.197765 -0.127327 -0.119013 0 0 0.464268 0 0 
255 1 255 0.419728 0.179911 0 0 -0.21481 -0.186217 -0.128614 -0.102958 0 0 0.338435 0 0 
256 1 256 0.419686 0.219898 0 0 -0.24204 -0.188487 -0.138087 -0.095365 0 0 0.408556 0 0 
257 1 257 0.419651 0.259889 0 0 -0.259252 -0.172008 -0.138321 -0.0833346 0 0 0.203735 0 0 
258 1 258 0.419623 0.299882 0 0 -0.286383 -0.169999 -0.146387 -0.0737673 0 0 0.513121 0 0 
259 1 259 0.419599 0.339879 0 0 -0.304142 -0.153461 -0.146779 -0.0685194 0 0 0.885072 0 0 
260 1 260 0.419581 0.379877 0 0 -0.32305 -0.162972 -0.155904 -0.0591464 0 0 1.19716 0 0 
261 1 261 0.419565 0.419878 0 0 -0.319789 -0.135629 -0.146075 -0.0602375 0 0 1.66942 0 0 
262 1 262 0.419553 0.459881 0 0 -0.334089 -0.14475 -0.153597 -0.0458552 0 0 1.22628 0 0 
263 1 263 0.419542 0.499885 0 0 -0.328965 -0.124531 -0.145459 -0.0489465 0 0 0.764955 0 0 
264 1 264 0.419537 0.53989 0 0 -0.322878 -0.115218 -0.140512 -0.0386557 0 0 0.104403 0 0 
265 1 265 0.419536 0.579896 0 0 -0.338267 -0.110594 -0.143969 -0.0403571 0 0 0.686768 0 0 
266 1 266 0.41953 0.619903 0 0 -0.352168 -0.112515 -0.149057 -0.0318617 0 0 0.86691 0 0 
267 1 267 0.419518 0.659911 0 0 -0.306989 -0.080098 -0.124139 -0.0337339 0 0 0.81652 0 0 
268 1 268 0.419509 0.699921 0 0 -0.267555 -0.0537848 -0.103034 -0.0256046 0 0 0.337974 0 0 
269 1 269 0.419514 0.739934 0 0 -0.284336 -0.0519836 -0.107839 -0.025836 0 0 0.829051 0 0 
270 1 270 0.419525 0.779949 0 0 -0.306274 -0.0495384 -0.1141 -0.0196316 0 0 1.39983 0 0 
271 1 271 0.419534 0.819965 0 0 -0.299341 -0.0402986 -0.108908 -0.0187237 0 0 1.61854 0 0 
272 1 272 0.41954 0.859983 0 0 -0.300514 -0.0280178 -0.105354 -0.0208003 0 0 1.90793 0 0 
273 1 273 0.419546 0.900002 0 0 -0.324787 -0.028433 -0.113277 -0.0178807 0 0 2.29484 0 0 
274 1 274 0.419552 0.940023 0 0 -0.332576 -0.0223489 -0.113835 -0.00687987 0 0 2.75474 0 0 
275 1 275 0.419558 0.980047 0 0 -0.313298 0.00942602 -0.0974381 -0.000110459 0 0 3.07167 0 0 
276 1 276 0.459966 0.0199874 0 0 -0.123681 -0.216995 -0.109239 -0.151747 0 0 0.0725477 0 0 
277 1 277 0.459896 0.0599627 0 0 -0.154527 -0.214574 -0.118357 -0.153846 0 0 0.364843 0 0 
278 1 278 0.459825 0.099942 0 0 -0.170563 -0.203137 -0.119836 -0.143414 0 0 0.393072 0 0 
279 1 279 0.459763 0.139923 0 0 -0.195753 -0.207076 -0.129191 -0.131 0 0 0.614177 0 0 
280 1 280 0.45971 0.179906 0 0 -0.215922 -0.198738 -0.132992 -0.116432 0 0 0.59587 0 0 
281 1 281 0.459665 0.21989 0 0 -0.240817 -0.202564 -0.142214 -0.108945 0 0 0.751649 0 0 
282 1 282 0.459625 0.259879 0 0 -0.258483 -0.181827 -0.141226 -0.0979172 0 0 0.605298 0 0 
283 1 283 0.459593 0.29987 0 0 -0.286033 -0.184204 -0.150837 -0.0894494 0 0 0.873246 0 0 
284 1 284 0.459566 0.339864 0 0 -0.292681 -0.160927 -0.145495 -0.0813605 0 0 1.00876 0 0 
285 1 285 0.459547 0.37986 0 0 -0.315196 -0.168473 -0.155148 -0.071976 0 0 1.33136 0 0 
286 1 286 0.459533 0.419858 0 0 -0.31895 -0.146369 -0.149253 -0.0701753 0 0 1.63862 0 0 
287 1 287 0.459526 0.459858 0 0 -0.330779 -0.155004 -0.15583 -0.0574412 0 0 1.09959 0 0 
288 1 288 0.459525 0.49986 0 0 -0.337412 -0.133435 -0.151035 -0.0592143 0 0 1.08583 0 0 
289 1 289 0.459525 0.539865 0 0 -0.347072 -0.128174 -0.152444 -0.0446798 0 0 0.395315 0 0 
290 1 290 0.459526 0.579873 0 0 -0.323181 -0.102877 -0.136645 -0.050829 0 0 0.20533 0 0 
291 1 291 0.459532 0.619883 0 0 -0.309791 -0.0861565 -0.126982 -0.045743 0 0 0.22366 0 0 
292 1 292 0.459546 0.659895 0 0 -0.351954 -0.0944299 -0.143177 -0.0530074 0 0 1.75054 0 0 
293 1 293 0.459554 0.699908 0 0 -0.396175 -0.10618 -0.161155 -0.0457486 0 0 2.86021 0 0 
294 1 294 0.459549 0.739922 0 0 -0.380849 -0.0853654 -0.149543 -0.0445035 0 0 3.27993 0 0 
295 1 295 0.459539 0.779938 0 0 -0.360614 -0.0641546 -0.136239 -0.0343769 0 0 3.03164 0 0 
296 1 296 0.459533 0.819956 0 0 -0.36997 -0.0587429 -0.137504 -0.0276174 0 0 3.09807 0 0 
297 1 297 0.459526 0.859974 0 0 -0.366466 -0.0459988 -0.132296 -0.0264811 0 0 3.24281 0 0 
298 1 298 0.459518 0.899995 0 0 -0.34061 -0.0279408 -0.118197 -0.0188811 0 0 2.78174 0 0 
299 1 299 0.459514 0.940017 0 0 -0.338352 -0.0151943 -0.113391 -0.0128334 0 0 3.14073 0 0 
300 1 300 0.459516 0.980042 0 0 -0.368057 -0.01341 -0.122343 -0.00425767 0 0 3.93252 0 0 
301 1 301 0.499959 0.019987 0 0 -0.118162 -0.220388 -0.108558 -0.165375 0 0 -0.0324017 0 0 
302 1 302 0.499881 0.0599614 0 0 -0.149455 -0.220976 -0.118786 -0.165537 0 0 0.252214 0 0 
303 1 303 0.499811 0.0999391 0 0 -0.173819 -0.214723 -0.124603 -0.152569 0 0 0.480718 0 0 
304 1 304 0.499747 0.139918 0 0 -0.191647 -0.218487 -0.131537 -0.139393 0 0 0.744266 0 0 
305 1 305 0.49969 0.179899 0 0 -0.202802 -0.206711 -0.131339 -0.127694 0 0 0.735017 0 0 
306 1 306 0.499641 0.219881 0 0 -0.226956 -0.210972 -0.140463 -0.121057 0 0 0.985935 0 0 
307 1 307 0.499597 0.259868 0 0 -0.236135 -0.185367 -0.135185 -0.112659 0 0 0.834365 0 0 
308 1 308 0.49956 0.299856 0 0 -0.266217 -0.19236 -0.147089 -0.105502 0 0 1.05 0 0 
309 1 309 0.49953 0.339848 0 0 -0.283272 -0.172142 -0.146072 -0.0954044 0 0 1.14406 0 0 
310 1 310 0.499506 0.379843 0 0 -0.30167 -0.174899 -0.152864 -0.0889371 0 0 1.34712 0 0 
311 1 311 0.499486 0.419839 0 0 -0.308962 -0.15914 -0.150146 -0.087068 0 0 1.40744 0 0 
312 1 312 0.499469 0.459838 0 0 -0.329176 -0.162627 -0.157765 -0.0770248 0 0 0.901169 0 0 
313 1 313 0.499455 0.49984 0 0 -0.325418 -0.133293 -0.147139 -0.0772417 0 0 0.601427 0 0 
314 1 314 0.499447 0.539844 0 0 -0.328523 -0.120993 -0.144182 -0.0634745 0 0 -0.160846 0 0 
315 1 315 0.499444 0.57985 0 0 -0.363011 -0.117818 -0.154235 -0.067143 0 0 0.599838 0 0 
316 1 316 0.499437 0.619858 0 0 -0.380518 -0.108321 -0.156811 -0.0508135 0 0 0.900262 0 0 
317 1 317 0.499423 0.65987 0 0 -0.33529 -0.0749548 -0.131571 -0.0521184 0 0 1.06261 0 0 
318 1 318 0.499412 0.699883 0 0 -0.296568 -0.0465627 -0.110027 -0.0409648 0 0 0.591458 0 0 
319 1 319 0.499414 0.7399 0 0 -0.314993 -0.0379008 -0.113159 -0.0399018 0 0 1.03561 0 0 
320 1 320 0.499423 0.779919 0 0 -0.347116 -0.0444831 -0.12559 -0.0309074 0 0 1.37945 0 0 
321 1 321 0.49943 0.81994 0 0 -0.339383 -0.0265198 -0.117336 -0.0256544 0 0 1.36437 0 0 
322 1 322 0.499435 0.859962 0 0 -0.340843 -0.0184381 -0.115219 -0.0270167 0 0 1.75718 0 0 
323 1 323 0.49944 0.899986 0 0 -0.365534 -0.0267409 -0.12581 -0.0182282 0 0 2.11742 0 0 
324 1 324 0.499445 0.94001 0 0 -0.36347 -0.0161397 -0.121752 -0.0122517 0 0 2.7263 0 0 
325 1 325 0.499447 0.980036 0 0 -0.338341 0.00486682 -0.106934 -0.00463818 0 0 2.89745 0 0 
326 1 326 0.53996 0.019986 0 0 -0.132182 -0.237992 -0.118708 -0.177213 0 0 -2.64477e-05 0 0 
327 1 327 0.539881 0.0599585 0 0 -0.154727 -0.233187 -0.124401 -0.174103 0 0 0.286291 0 0 
328 1 328 0.539803 0.0999345 0 0 -0.160393 -0.221208 -0.122376 -0.161401 0 0 0.431109 0 0 
329 1 329 0.539735 0.139911 0 0 -0.18007 -0.229461 -0.131343 -0.149023 0 0 0.737366 0 0 
330 1 330 0.539676 0.179889 0 0 -0.191663 -0.217405 -0.131196 -0.13929 0 0 0.796712 0 0 