ITEM: TIMESTEP
0
ITEM: NUMBER OF ATOMS
6875
ITEM: BOX BOUNDS sm sm sm
0 4
0 2
0 0
ITEM: ATOMS id type tag x y z damage s11 s22 s33 s12 s13 s23 vx T ienergy 
1 1 1 0.0199973 0.0199989 0 0 -0.0341422 -0.0343052 -0.0219265 -0.0122961 0 0 -0.0633151 0 0 
2 1 2 0.019995 0.0599966 0 0 -0.057021 -0.0320201 -0.0285199 -0.0161674 0 0 0.192787 0 0 
3 1 3 0.0199937 0.0999965 0 0 -0.0774041 -0.0404226 -0.03775 -0.0207524 0 0 0.00528095 0 0 
4 1 4 0.0199928 0.139995 0 0 -0.108827 -0.0553019 -0.0525978 -0.0246241 0 0 0.0457696 0 0 
5 1 5 0.0199911 0.179996 0 0 -0.127008 -0.0561822 -0.0587088 -0.0212357 0 0 0.0352625 0 0 
6 1 6 0.0199899 0.219996 0 0 -0.146598 -0.0635653 -0.067359 -0.0209453 0 0 -0.00913172 0 0 
7 1 7 0.0199881 0.259997 0 0 -0.167306 -0.0732876 -0.0771195 -0.0142238 0 0 -0.128209 0 0 
8 1 8 0.0199872 0.299998 0 0 -0.19018 -0.085101 -0.0882454 -0.0140008 0 0 -0.0982472 0 0 
9 1 9 0.0199856 0.339999 0 0 -0.205003 -0.0919049 -0.0951838 -0.00555277 0 0 -0.238788 0 0 
10 1 10 0.0199856 0.379999 0 0 -0.21278 -0.0923613 -0.0978242 -0.00500691 0 0 0.040449 0 0 
11 1 11 0.0199846 0.420001 0 0 -0.215639 -0.0973348 -0.100337 0.00547939 0 0 -0.124633 0 0 
12 1 12 0.0199849 0.460001 0 0 -0.208065 -0.0960001 -0.0974803 0.00402675 0 0 -0.185674 0 0 
13 1 13 0.0199832 0.500002 0 0 -0.203919 -0.0972332 -0.096546 0.00739251 0 0 -0.23292 0 0 
14 1 14 0.019981 0.540001 0 0 -0.198751 -0.0975287 -0.0949843 0.00302916 0 0 -0.468498 0 0 
15 1 15 0.0199752 0.580001 0 0 -0.192182 -0.091361 -0.090899 0.0037373 0 0 -0.599375 0 0 
16 1 16 0.0199698 0.620001 0 0 -0.193458 -0.0864339 -0.0897283 0.000502787 0 0 -0.907747 0 0 
17 1 17 0.0199665 0.660003 0 0 -0.182081 -0.0780365 -0.0833847 0.0132418 0 0 -1.36677 0 0 
18 1 18 0.0199704 0.700003 0 0 -0.16551 -0.0718612 -0.0760875 0.0117601 0 0 -1.27897 0 0 
19 1 19 0.0199743 0.740005 0 0 -0.148136 -0.0644212 -0.0681272 0.022093 0 0 -1.1085 0 0 
20 1 20 0.0199818 0.780003 0 0 -0.122824 -0.0637978 -0.0598082 0.0193999 0 0 -1.03155 0 0 
21 1 21 0.0199848 0.820004 0 0 -0.112599 -0.05853 -0.0548378 0.0122676 0 0 -0.394323 0 0 
22 1 22 0.0199901 0.860001 0 0 -0.0949437 -0.0522562 -0.0471655 0.0135596 0 0 -0.673289 0 0 
23 1 23 0.01999 0.900003 0 0 -0.100314 -0.032767 -0.0426376 0.000365254 0 0 0.247566 0 0 
24 1 24 0.0199912 0.940003 0 0 -0.119386 -0.0556063 -0.0560851 0.0233196 0 0 -0.329471 0 0 
25 1 25 0.019986 0.980011 0 0 -0.135016 -0.00207625 -0.053905 0.00237261 0 0 0.662567 0 0 
26 1 26 0.0599971 0.0199974 0 0 -0.0329587 -0.0529455 -0.0275196 -0.0152743 0 0 0.105448 0 0 
27 1 27 0.059993 0.0599914 0 0 -0.0633372 -0.0574563 -0.038703 -0.0175372 0 0 0.863591 0 0 
28 1 28 0.0599864 0.099989 0 0 -0.090033 -0.0524512 -0.0456546 -0.0232501 0 0 0.243805 0 0 
29 1 29 0.0599804 0.139987 0 0 -0.120225 -0.0660184 -0.0596848 -0.0289947 0 0 0.254701 0 0 
30 1 30 0.0599746 0.179988 0 0 -0.146439 -0.0594008 -0.0659745 -0.0215464 0 0 0.383149 0 0 
31 1 31 0.0599712 0.219988 0 0 -0.172627 -0.0701279 -0.0778174 -0.0240047 0 0 0.518043 0 0 
32 1 32 0.0599668 0.259992 0 0 -0.185243 -0.068889 -0.0814682 -0.0155901 0 0 0.40544 0 0 
33 1 33 0.0599642 0.299993 0 0 -0.202139 -0.084479 -0.0918876 -0.0180809 0 0 0.679907 0 0 
34 1 34 0.0599606 0.339996 0 0 -0.210639 -0.0797174 -0.0930877 -0.00520924 0 0 0.473705 0 0 
35 1 35 0.05996 0.379998 0 0 -0.222889 -0.0897736 -0.100244 -0.00712998 0 0 0.810405 0 0 
36 1 36 0.059959 0.420001 0 0 -0.223027 -0.0871894 -0.0994571 0.00770423 0 0 0.467318 0 0 
37 1 37 0.0599628 0.460002 0 0 -0.218761 -0.102655 -0.103055 0.00703814 0 0 0.581142 0 0 
38 1 38 0.0599653 0.500003 0 0 -0.204183 -0.0958485 -0.0961918 0.00752347 0 0 1.09519 0 0 
39 1 39 0.059971 0.540001 0 0 -0.198903 -0.111535 -0.0995304 0.00482995 0 0 0.960763 0 0 
40 1 40 0.0599763 0.58 0 0 -0.188761 -0.0864211 -0.0882175 -0.00322253 0 0 1.63633 0 0 
41 1 41 0.0599821 0.62 0 0 -0.198072 -0.0958294 -0.0942247 -0.00603181 0 0 1.94949 0 0 
42 1 42 0.0599848 0.660003 0 0 -0.186105 -0.0606517 -0.0790977 0.00134112 0 0 2.21506 0 0 
43 1 43 0.0599869 0.700005 0 0 -0.188389 -0.0865421 -0.0881378 0.00335866 0 0 2.09534 0 0 
44 1 44 0.0599864 0.740007 0 0 -0.146334 -0.0451203 -0.0613591 0.00714137 0 0 1.97545 0 0 
45 1 45 0.0599883 0.780008 0 0 -0.141753 -0.0872811 -0.0734123 0.0140416 0 0 0.789669 0 0 
46 1 46 0.0599878 0.820006 0 0 -0.0985246 -0.0420493 -0.0450397 -0.00179727 0 0 1.12182 0 0 
47 1 47 0.0599857 0.860006 0 0 -0.122948 -0.0701388 -0.0618863 0.0159049 0 0 -0.102565 0 0 
48 1 48 0.0599819 0.900006 0 0 -0.101164 -0.0213848 -0.0392558 -0.0121642 0 0 0.901673 0 0 
49 1 49 0.0599746 0.940013 0 0 -0.152535 -0.0229312 -0.0562335 0.0186348 0 0 0.55119 0 0 
50 1 50 0.059965 0.980024 0 0 -0.0984541 0.0453891 -0.0169988 -0.027727 0 0 2.11683 0 0 
51 1 51 0.0999936 0.0199961 0 0 -0.0419321 -0.0677243 -0.0351465 -0.0242589 0 0 -0.19447 0 0 
52 1 52 0.0999829 0.0599886 0 0 -0.0759237 -0.0818261 -0.0505588 -0.0306652 0 0 0.559991 0 0 
53 1 53 0.0999726 0.0999836 0 0 -0.103913 -0.0677271 -0.0550057 -0.0283381 0 0 0.325396 0 0 
54 1 54 0.0999635 0.139981 0 0 -0.14356 -0.0811395 -0.0720231 -0.0378283 0 0 0.61902 0 0 
55 1 55 0.0999529 0.179981 0 0 -0.170833 -0.0720161 -0.0778494 -0.0321958 0 0 0.758902 0 0 
56 1 56 0.0999452 0.219982 0 0 -0.197992 -0.079593 -0.0889948 -0.0307415 0 0 0.86461 0 0 
57 1 57 0.0999388 0.259986 0 0 -0.207924 -0.068743 -0.0887021 -0.0221574 0 0 0.787539 0 0 
58 1 58 0.0999347 0.29999 0 0 -0.219048 -0.0837555 -0.0970865 -0.0195773 0 0 0.866852 0 0 
59 1 59 0.09993 0.339994 0 0 -0.215423 -0.0672013 -0.0906118 -0.011481 0 0 0.467087 0 0 
60 1 60 0.099928 0.379999 0 0 -0.226769 -0.0881046 -0.100958 -0.00660247 0 0 0.502516 0 0 
61 1 61 0.0999275 0.420002 0 0 -0.213103 -0.0767204 -0.0929166 0.00410636 0 0 0.254046 0 0 
62 1 62 0.0999312 0.460004 0 0 -0.20861 -0.099915 -0.0989201 0.00936715 0 0 0.0483711 0 0 
63 1 63 0.0999338 0.500004 0 0 -0.185958 -0.0935817 -0.0896192 0.000905379 0 0 0.428192 0 0 
64 1 64 0.0999342 0.540001 0 0 -0.185514 -0.114305 -0.0961244 0.00242569 0 0 -0.116831 0 0 
65 1 65 0.0999294 0.579998 0 0 -0.168755 -0.0824623 -0.0805278 -0.0183642 0 0 0.191215 0 0 
66 1 66 0.0999212 0.619997 0 0 -0.183905 -0.099541 -0.0908704 -0.0131134 0 0 -0.505432 0 0 
67 1 67 0.0999192 0.659998 0 0 -0.157696 -0.0477269 -0.0658389 -0.0138502 0 0 -0.457511 0 0 
68 1 68 0.0999245 0.700001 0 0 -0.171737 -0.0774819 -0.0798889 -0.00319469 0 0 -0.495046 0 0 
69 1 69 0.099936 0.740002 0 0 -0.140816 -0.0463723 -0.0599925 -0.00174734 0 0 -0.238793 0 0 
70 1 70 0.0999486 0.780004 0 0 -0.13836 -0.0670067 -0.0658237 0.00607495 0 0 -0.592172 0 0 
71 1 71 0.0999581 0.820004 0 0 -0.123726 -0.0486253 -0.0552333 -0.00788689 0 0 0.164205 0 0 
72 1 72 0.0999619 0.860006 0 0 -0.107291 -0.0362214 -0.0459929 0.000527616 0 0 0.0829622 0 0 
73 1 73 0.0999602 0.90001 0 0 -0.123597 -0.0225605 -0.0468304 -0.0154569 0 0 1.09845 0 0 
74 1 74 0.0999509 0.940017 0 0 -0.118636 -0.00296488 -0.0389599 -0.0209264 0 0 1.36593 0 0 
75 1 75 0.0999453 0.980026 0 0 -0.103051 0.00373705 -0.0318193 -0.0136635 0 0 2.64576 0 0 
76 1 76 0.139994 0.0199947 0 0 -0.0604198 -0.0928315 -0.0491213 -0.0323132 0 0 -0.0475782 0 0 
77 1 77 0.13998 0.0599856 0 0 -0.0913844 -0.0918428 -0.058728 -0.0399699 0 0 0.688631 0 0 
78 1 78 0.139963 0.0999792 0 0 -0.119822 -0.0889207 -0.0669143 -0.0379112 0 0 0.381875 0 0 
79 1 79 0.139947 0.139975 0 0 -0.152768 -0.0909186 -0.0781196 -0.0479925 0 0 0.830988 0 0 
80 1 80 0.139932 0.179974 0 0 -0.184735 -0.088319 -0.0875404 -0.0428162 0 0 1.30966 0 0 
81 1 81 0.13992 0.219975 0 0 -0.206738 -0.0797597 -0.0918539 -0.0381995 0 0 1.62822 0 0 
82 1 82 0.139912 0.259979 0 0 -0.222032 -0.073794 -0.0948486 -0.0307991 0 0 1.67626 0 0 
83 1 83 0.139906 0.299984 0 0 -0.233973 -0.0765319 -0.0995604 -0.0249313 0 0 1.59534 0 0 
84 1 84 0.139901 0.33999 0 0 -0.238502 -0.0732004 -0.0999458 -0.0221276 0 0 1.31202 0 0 
85 1 85 0.139899 0.379995 0 0 -0.24029 -0.0842139 -0.10405 -0.0103228 0 0 1.10389 0 0 
86 1 86 0.139901 0.419999 0 0 -0.227797 -0.0897935 -0.101827 0.000659175 0 0 0.887163 0 0 
87 1 87 0.139909 0.46 0 0 -0.22041 -0.104407 -0.104147 0.00807749 0 0 0.931771 0 0 
88 1 88 0.139918 0.499999 0 0 -0.203489 -0.113006 -0.101477 0.00197092 0 0 1.37911 0 0 
89 1 89 0.139927 0.539994 0 0 -0.197521 -0.123624 -0.102967 -0.00384353 0 0 1.35639 0 0 
90 1 90 0.139933 0.579991 0 0 -0.188069 -0.105067 -0.0939781 -0.0235999 0 0 2.00983 0 0 
91 1 91 0.139936 0.619988 0 0 -0.196791 -0.113077 -0.0993496 -0.0262367 0 0 2.26841 0 0 
92 1 92 0.139938 0.659988 0 0 -0.199289 -0.0846408 -0.0910256 -0.0231213 0 0 2.9002 0 0 
93 1 93 0.139941 0.699989 0 0 -0.197432 -0.0845679 -0.0904094 -0.0161205 0 0 2.9538 0 0 
94 1 94 0.139945 0.739992 0 0 -0.182996 -0.0715981 -0.0816159 -0.00341908 0 0 2.6026 0 0 
95 1 95 0.139952 0.779993 0 0 -0.170575 -0.0613971 -0.0743616 -0.00667417 0 0 1.7812 0 0 
96 1 96 0.139954 0.819998 0 0 -0.154867 -0.0461719 -0.0644361 -0.0121948 0 0 1.62713 0 0 
97 1 97 0.139954 0.860002 0 0 -0.15069 -0.0414721 -0.061589 -0.0101988 0 0 1.00104 0 0 
98 1 98 0.139946 0.900009 0 0 -0.123483 -0.00177175 -0.040128 -0.0394469 0 0 2.15238 0 0 
99 1 99 0.139936 0.940016 0 0 -0.131535 -0.03634 -0.0538078 -0.0185358 0 0 2.43612 0 0 
100 1 100 0.139929 0.980023 0 0 -0.105748 0.0194709 -0.0276454 -0.0202854 0 0 3.81908 0 0 
101 1 101 0.179989 0.0199938 0 0 -0.070044 -0.111116 -0.0580597 -0.0439491 0 0 -0.158416 0 0 
102 1 102 0.179968 0.0599829 0 0 -0.100517 -0.103228 -0.0653062 -0.0520184 0 0 0.27461 0 0 
103 1 103 0.179947 0.0999751 0 0 -0.136935 -0.109363 -0.0789631 -0.0507288 0 0 0.351776 0 0 
104 1 104 0.179928 0.139969 0 0 -0.164248 -0.102386 -0.0854838 -0.0600432 0 0 1.15231 0 0 
105 1 105 0.179907 0.179967 0 0 -0.189672 -0.100097 -0.0929039 -0.0532135 0 0 1.57179 0 0 
106 1 106 0.179892 0.219967 0 0 -0.20547 -0.0822716 -0.0922495 -0.0470081 0 0 2.02941 0 0 
107 1 107 0.17988 0.25997 0 0 -0.225005 -0.0807702 -0.0980375 -0.0406673 0 0 2.08171 0 0 
108 1 108 0.179872 0.299975 0 0 -0.228413 -0.0651909 -0.0941369 -0.0329739 0 0 1.70014 0 0 
109 1 109 0.179867 0.339983 0 0 -0.22693 -0.0661486 -0.0939714 -0.0299705 0 0 1.29279 0 0 
110 1 110 0.179866 0.379988 0 0 -0.220839 -0.0725723 -0.0940731 -0.0169749 0 0 0.861084 0 0 
111 1 111 0.179869 0.419993 0 0 -0.211308 -0.0807165 -0.093623 -0.00559588 0 0 0.391996 0 0 
112 1 112 0.179878 0.459993 0 0 -0.208148 -0.107172 -0.101099 0.000748902 0 0 0.264319 0 0 
113 1 113 0.179887 0.499992 0 0 -0.185226 -0.0996943 -0.0913449 -0.000220961 0 0 0.123656 0 0 
114 1 114 0.179891 0.539987 0 0 -0.186366 -0.129102 -0.101145 -0.0133957 0 0 0.195269 0 0 
115 1 115 0.179887 0.579982 0 0 -0.173405 -0.104061 -0.0889519 -0.0302014 0 0 0.243722 0 0 
116 1 116 0.179878 0.619978 0 0 -0.17552 -0.117053 -0.0938018 -0.0342604 0 0 -0.254933 0 0 
117 1 117 0.179872 0.659975 0 0 -0.171239 -0.082543 -0.0813539 -0.0354372 0 0 0.150866 0 0 
118 1 118 0.179877 0.699974 0 0 -0.184655 -0.084971 -0.0864404 -0.0149327 0 0 -0.0988587 0 0 
119 1 119 0.17989 0.739977 0 0 -0.174023 -0.0534971 -0.0729308 -0.00989038 0 0 0.465698 0 0 
120 1 120 0.179905 0.779981 0 0 -0.18627 -0.0638735 -0.0801906 -0.00480829 0 0 0.360167 0 0 
121 1 121 0.179916 0.819987 0 0 -0.164648 -0.0249711 -0.060773 -0.0152616 0 0 0.988253 0 0 
122 1 122 0.179921 0.859995 0 0 -0.17329 -0.0453184 -0.0700675 -0.0163817 0 0 1.10776 0 0 
123 1 123 0.17992 0.900002 0 0 -0.143629 -0.00687856 -0.0482255 -0.0344738 0 0 2.30121 0 0 
124 1 124 0.179913 0.940011 0 0 -0.129701 -0.0131465 -0.0457899 -0.0269791 0 0 2.87938 0 0 
125 1 125 0.17991 0.980019 0 0 -0.10586 -0.000218389 -0.0339994 -0.0170089 0 0 4.15509 0 0 
126 1 126 0.219988 0.0199928 0 0 -0.0812124 -0.130026 -0.0677078 -0.056624 0 0 0.00509608 0 0 
127 1 127 0.219963 0.0599795 0 0 -0.107493 -0.119214 -0.0726675 -0.0620459 0 0 0.265471 0 0 
128 1 128 0.219937 0.0999699 0 0 -0.130494 -0.115813 -0.07896 -0.0616776 0 0 0.291459 0 0 
129 1 129 0.219912 0.139962 0 0 -0.152371 -0.108046 -0.0834875 -0.0709196 0 0 1.33453 0 0 
130 1 130 0.219887 0.179958 0 0 -0.172536 -0.0984441 -0.0868745 -0.0654101 0 0 1.934 0 0 
131 1 131 0.219868 0.219957 0 0 -0.197108 -0.0921712 -0.0927406 -0.0614925 0 0 2.60242 0 0 
132 1 132 0.219852 0.259959 0 0 -0.215032 -0.0798728 -0.0945449 -0.0523691 0 0 2.69222 0 0 
133 1 133 0.219843 0.299964 0 0 -0.225135 -0.0660477 -0.0933565 -0.0430683 0 0 2.46155 0 0 
134 1 134 0.219837 0.33997 0 0 -0.234891 -0.0703538 -0.0978748 -0.0381234 0 0 2.04198 0 0 
135 1 135 0.219837 0.379975 0 0 -0.239239 -0.0889377 -0.105233 -0.0248193 0 0 1.3462 0 0 
136 1 136 0.219843 0.419979 0 0 -0.227711 -0.084362 -0.100061 -0.0133853 0 0 0.910408 0 0 
137 1 137 0.219856 0.459979 0 0 -0.23968 -0.127918 -0.117884 -0.00597148 0 0 0.983055 0 0 
138 1 138 0.21987 0.499978 0 0 -0.223798 -0.111823 -0.107621 -0.00408833 0 0 0.939638 0 0 
139 1 139 0.219882 0.539974 0 0 -0.232829 -0.146715 -0.121717 -0.0190543 0 0 1.24897 0 0 
140 1 140 0.219889 0.579969 0 0 -0.222172 -0.134691 -0.114436 -0.0317225 0 0 1.78022 0 0 
141 1 141 0.219892 0.619964 0 0 -0.228899 -0.143426 -0.119401 -0.0355737 0 0 2.0776 0 0 
142 1 142 0.21989 0.65996 0 0 -0.234697 -0.128138 -0.116352 -0.0427525 0 0 3.36235 0 0 
143 1 143 0.219889 0.699958 0 0 -0.239259 -0.111068 -0.112337 -0.0160349 0 0 2.92288 0 0 
144 1 144 0.219894 0.739961 0 0 -0.237578 -0.0829368 -0.102768 -0.0168599 0 0 3.10628 0 0 
145 1 145 0.219899 0.779967 0 0 -0.236488 -0.0694594 -0.098092 -0.00921103 0 0 2.49233 0 0 
146 1 146 0.219904 0.819976 0 0 -0.208877 -0.0371149 -0.0788516 -0.0134937 0 0 2.29366 0 0 
147 1 147 0.219905 0.859985 0 0 -0.196416 -0.0384146 -0.0752718 -0.0196484 0 0 2.36681 0 0 
148 1 148 0.219901 0.899995 0 0 -0.169114 -0.00827037 -0.0568421 -0.0275792 0 0 3.10379 0 0 
149 1 149 0.219895 0.940004 0 0 -0.148213 -0.0217149 -0.0544729 -0.0191499 0 0 3.71841 0 0 
150 1 150 0.219893 0.980013 0 0 -0.118448 0.00216382 -0.0372713 -0.0172379 0 0 4.97828 0 0 
151 1 151 0.259983 0.0199917 0 0 -0.087819 -0.147306 -0.0753732 -0.0698434 0 0 -0.173341 0 0 
152 1 152 0.259951 0.0599761 0 0 -0.115112 -0.138102 -0.0811701 -0.0712316 0 0 -0.191174 0 0 
153 1 153 0.259922 0.0999648 0 0 -0.134472 -0.12613 -0.0835428 -0.0711094 0 0 0.0934067 0 0 
154 1 154 0.259895 0.139955 0 0 -0.152883 -0.125598 -0.0892794 -0.0789911 0 0 1.32865 0 0 
155 1 155 0.259867 0.179949 0 0 -0.161305 -0.104139 -0.0850965 -0.0768438 0 0 1.86565 0 0 
156 1 156 0.259843 0.219945 0 0 -0.18528 -0.103433 -0.0925568 -0.0752236 0 0 2.81234 0 0 
157 1 157 0.259823 0.259945 0 0 -0.194352 -0.0751418 -0.0863879 -0.0637261 0 0 3.00656 0 0 
158 1 158 0.259811 0.299949 0 0 -0.210234 -0.0708966 -0.0901265 -0.0566859 0 0 2.59536 0 0 
159 1 159 0.259804 0.339954 0 0 -0.217225 -0.0699748 -0.0920782 -0.0485236 0 0 1.91187 0 0 
160 1 160 0.259804 0.379958 0 0 -0.21876 -0.0827028 -0.0966586 -0.0328767 0 0 1.08595 0 0 
161 1 161 0.259811 0.419961 0 0 -0.212799 -0.0869892 -0.0961213 -0.0225274 0 0 0.464166 0 0 
162 1 162 0.259823 0.459961 0 0 -0.216372 -0.110225 -0.104729 -0.0187318 0 0 0.0864352 0 0 
163 1 163 0.259835 0.499961 0 0 -0.212263 -0.108054 -0.102716 -0.0164113 0 0 -0.349456 0 0 
164 1 164 0.259842 0.539958 0 0 -0.219506 -0.12372 -0.110063 -0.0335074 0 0 -0.336623 0 0 
165 1 165 0.259838 0.579955 0 0 -0.215115 -0.125231 -0.109136 -0.0399767 0 0 -0.298188 0 0 
166 1 166 0.25983 0.61995 0 0 -0.205174 -0.124773 -0.105797 -0.0405483 0 0 -0.635227 0 0 
167 1 167 0.259822 0.659947 0 0 -0.201063 -0.111342 -0.100165 -0.0457319 0 0 0.208165 0 0 
168 1 168 0.259822 0.699945 0 0 -0.211513 -0.101869 -0.100477 -0.0124815 0 0 -0.253056 0 0 
169 1 169 0.259832 0.739947 0 0 -0.215611 -0.0657772 -0.090211 -0.0135978 0 0 0.692969 0 0 
170 1 170 0.259843 0.779954 0 0 -0.234507 -0.067811 -0.0969259 -0.000943675 0 0 0.776294 0 0 
171 1 171 0.259856 0.819963 0 0 -0.217687 -0.0233408 -0.0772565 -0.00533738 0 0 1.30232 0 0 
172 1 172 0.259865 0.859975 0 0 -0.219876 -0.0404988 -0.0834675 -0.0120143 0 0 2.2541 0 0 
173 1 173 0.259868 0.899987 0 0 -0.177942 -0.000477494 -0.0571743 -0.0175782 0 0 3.17606 0 0 
174 1 174 0.25987 0.939998 0 0 -0.153689 -0.020847 -0.0559492 -0.00847699 0 0 3.7771 0 0 
175 1 175 0.259873 0.980006 0 0 -0.11424 -0.00414019 -0.0379403 -0.0094995 0 0 4.88053 0 0 
176 1 176 0.299982 0.0199901 0 0 -0.101099 -0.171022 -0.0872432 -0.0838648 0 0 -0.210689 0 0 
177 1 177 0.299947 0.0599717 0 0 -0.121636 -0.158956 -0.0899571 -0.0800462 0 0 -0.207031 0 0 
178 1 178 0.299914 0.0999578 0 0 -0.121687 -0.131513 -0.0811674 -0.0814262 0 0 0.181595 0 0 
179 1 179 0.299882 0.139946 0 0 -0.140855 -0.136597 -0.0889476 -0.0888807 0 0 1.25473 0 0 
180 1 180 0.299851 0.179937 0 0 -0.15245 -0.115517 -0.0859058 -0.0885385 0 0 1.98152 0 0 
181 1 181 0.299824 0.219931 0 0 -0.171835 -0.108779 -0.089959 -0.0858008 0 0 3.23964 0 0 
182 1 182 0.299801 0.259929 0 0 -0.190163 -0.0908964 -0.0900994 -0.0767323 0 0 3.41443 0 0 
183 1 183 0.299784 0.29993 0 0 -0.220499 -0.0905463 -0.0997228 -0.0710229 0 0 3.25241 0 0 
184 1 184 0.299776 0.339933 0 0 -0.235869 -0.0936033 -0.105638 -0.0553593 0 0 2.69264 0 0 
185 1 185 0.299777 0.379935 0 0 -0.238635 -0.0953305 -0.107083 -0.0420904 0 0 2.07207 0 0 
186 1 186 0.299785 0.419937 0 0 -0.254885 -0.118461 -0.119728 -0.0305417 0 0 1.39469 0 0 
187 1 187 0.299798 0.459936 0 0 -0.265226 -0.127639 -0.126001 -0.0256669 0 0 1.02064 0 0 
188 1 188 0.299813 0.499936 0 0 -0.274847 -0.129196 -0.129593 -0.0231521 0 0 0.827362 0 0 
189 1 189 0.299826 0.539935 0 0 -0.283791 -0.144341 -0.137323 -0.0343796 0 0 0.667164 0 0 
190 1 190 0.299834 0.579934 0 0 -0.272843 -0.131493 -0.129678 -0.0422284 0 0 1.32171 0 0 
191 1 191 0.299838 0.619933 0 0 -0.284672 -0.150739 -0.139655 -0.0437143 0 0 1.709 0 0 
192 1 192 0.299835 0.659932 0 0 -0.274258 -0.131434 -0.130111 -0.0510419 0 0 3.02677 0 0 
193 1 193 0.29983 0.699932 0 0 -0.27907 -0.128776 -0.130801 -0.0214886 0 0 2.72296 0 0 
194 1 194 0.299829 0.739936 0 0 -0.269675 -0.0812742 -0.112535 -0.0195922 0 0 3.11738 0 0 
195 1 195 0.299831 0.779944 0 0 -0.270724 -0.0786492 -0.112028 0.000454968 0 0 2.73829 0 0 
196 1 196 0.299836 0.819955 0 0 -0.250683 -0.0318407 -0.0905703 0.000365827 0 0 2.66985 0 0 
197 1 197 0.29984 0.859967 0 0 -0.244156 -0.040974 -0.0914117 -0.00328269 0 0 3.07585 0 0 
198 1 198 0.299843 0.89998 0 0 -0.202646 -0.0104674 -0.0683026 -0.00241477 0 0 3.74465 0 0 
199 1 199 0.299848 0.939991 0 0 -0.171784 -0.0268926 -0.063689 0.00664987 0 0 4.27791 0 0 
200 1 200 0.299856 0.98 0 0 -0.123821 -0.00931749 -0.0426691 0.00221561 0 0 5.10304 0 0 
201 1 201 0.339977 0.0199889 0 0 -0.0982963 -0.185902 -0.0911184 -0.0930811 0 0 -0.429933 0 0 
202 1 202 0.339937 0.0599678 0 0 -0.113446 -0.17394 -0.0921376 -0.0827159 0 0 -0.498169 0 0 
203 1 203 0.339902 0.099951 0 0 -0.125539 -0.151143 -0.0887026 -0.0862796 0 0 0.0326804 0 0 
204 1 204 0.339869 0.139936 0 0 -0.147663 -0.155904 -0.0973279 -0.0944047 0 0 1.06691 0 0 
205 1 205 0.339835 0.179925 0 0 -0.152845 -0.131448 -0.0911453 -0.0959782 0 0 2.06747 0 0 
206 1 206 0.339803 0.219917 0 0 -0.174142 -0.123876 -0.0955473 -0.0967503 0 0 3.32845 0 0 
207 1 207 0.339775 0.259912 0 0 -0.20113 -0.118604 -0.102513 -0.0898919 0 0 3.46073 0 0 
208 1 208 0.339755 0.299909 0 0 -0.217851 -0.105537 -0.103684 -0.0814983 0 0 3.65854 0 0 
209 1 209 0.339744 0.33991 0 0 -0.228729 -0.104472 -0.106835 -0.0583918 0 0 2.85435 0 0 
210 1 210 0.339744 0.37991 0 0 -0.237577 -0.112733 -0.112325 -0.0484024 0 0 2.17257 0 0 
211 1 211 0.33975 0.41991 0 0 -0.243488 -0.116313 -0.115375 -0.0401641 0 0 1.34872 0 0 
212 1 212 0.339761 0.459909 0 0 -0.247876 -0.120584 -0.118159 -0.0359187 0 0 0.346555 0 0 
213 1 213 0.339772 0.49991 0 0 -0.247387 -0.106865 -0.113603 -0.040209 0 0 0.033919 0 0 
214 1 214 0.339777 0.539911 0 0 -0.258461 -0.115701 -0.119991 -0.0465439 0 0 -0.713624 0 0 
215 1 215 0.339776 0.579913 0 0 -0.247273 -0.1032 -0.112386 -0.0501402 0 0 -0.524898 0 0 
216 1 216 0.339769 0.619915 0 0 -0.235758 -0.10204 -0.108319 -0.0514612 0 0 -0.64573 0 0 
217 1 217 0.339761 0.659917 0 0 -0.219005 -0.0872654 -0.0981987 -0.0486121 0 0 -0.201144 0 0 
218 1 218 0.339759 0.699919 0 0 -0.219865 -0.0825452 -0.0969595 -0.0254539 0 0 -0.0724521 0 0 
219 1 219 0.339763 0.739925 0 0 -0.226786 -0.0519942 -0.0893754 -0.0197151 0 0 0.731203 0 0 
220 1 220 0.339772 0.779935 0 0 -0.245025 -0.0548956 -0.0961582 0.00158804 0 0 0.908435 0 0 
221 1 221 0.339783 0.819947 0 0 -0.236372 -0.0167138 -0.0811279 -0.000396877 0 0 1.89477 0 0 
222 1 222 0.339794 0.859961 0 0 -0.240534 -0.0380075 -0.0893018 0.00728074 0 0 2.62326 0 0 
223 1 223 0.339806 0.899974 0 0 -0.197066 -0.00845536 -0.0658729 0.00524638 0 0 3.52042 0 0 
224 1 224 0.33982 0.939985 0 0 -0.168099 -0.0286634 -0.0630754 0.018462 0 0 4.00225 0 0 
225 1 225 0.339835 0.979993 0 0 -0.121487 -0.00597034 -0.0408458 0.00851175 0 0 4.65908 0 0 
226 1 226 0.379978 0.019988 0 0 -0.102794 -0.19902 -0.0967686 -0.0992057 0 0 -0.292622 0 0 
227 1 227 0.379936 0.0599644 0 0 -0.117584 -0.193848 -0.0998524 -0.0879624 0 0 -0.151927 0 0 
228 1 228 0.379897 0.0999444 0 0 -0.125208 -0.172768 -0.0955354 -0.0927213 0 0 0.257474 0 0 
229 1 229 0.379859 0.139927 0 0 -0.142038 -0.168984 -0.0997211 -0.0987102 0 0 1.10392 0 0 
230 1 230 0.379822 0.179913 0 0 -0.15536 -0.148913 -0.0975583 -0.102018 0 0 2.16627 0 0 
231 1 231 0.379786 0.219901 0 0 -0.183022 -0.149208 -0.106531 -0.105777 0 0 3.31586 0 0 
232 1 232 0.379754 0.259893 0 0 -0.206421 -0.135751 -0.10972 -0.0978627 0 0 3.76702 0 0 
233 1 233 0.37973 0.299888 0 0 -0.233312 -0.136095 -0.11846 -0.0862289 0 0 4.43991 0 0 
234 1 234 0.379716 0.339885 0 0 -0.252291 -0.130341 -0.122707 -0.063585 0 0 3.76008 0 0 
235 1 235 0.379715 0.379882 0 0 -0.281042 -0.152777 -0.139138 -0.0508844 0 0 3.32068 0 0 
236 1 236 0.379721 0.41988 0 0 -0.286473 -0.142422 -0.137558 -0.0388529 0 0 2.80081 0 0 
237 1 237 0.379732 0.459879 0 0 -0.301855 -0.143057 -0.142702 -0.0358482 0 0 1.96503 0 0 
238 1 238 0.379744 0.49988 0 0 -0.321159 -0.142855 -0.14884 -0.0378774 0 0 1.69957 0 0 
239 1 239 0.379755 0.539883 0 0 -0.315471 -0.119514 -0.139516 -0.0414138 0 0 1.05703 0 0 
240 1 240 0.379764 0.579888 0 0 -0.315978 -0.118338 -0.139303 -0.0437023 0 0 1.59426 0 0 
241 1 241 0.37977 0.619893 0 0 -0.311347 -0.11493 -0.136726 -0.0460076 0 0 2.10569 0 0 
242 1 242 0.37977 0.659899 0 0 -0.293314 -0.0984213 -0.125633 -0.0489647 0 0 2.9013 0 0 
243 1 243 0.379764 0.699906 0 0 -0.298649 -0.105741 -0.129696 -0.0374519 0 0 2.89065 0 0 
244 1 244 0.379758 0.739914 0 0 -0.281197 -0.0643426 -0.1108 -0.0317434 0 0 3.11294 0 0 
245 1 245 0.379756 0.779925 0 0 -0.287614 -0.0709045 -0.114967 -0.0102303 0 0 2.85548 0 0 
246 1 246 0.37976 0.819938 0 0 -0.273171 -0.0295799 -0.0970678 -0.0121419 0 0 3.23458 0 0 
247 1 247 0.379767 0.859952 0 0 -0.258837 -0.0449902 -0.0974207 0.00483776 0 0 3.26305 0 0 
248 1 248 0.379779 0.899964 0 0 -0.219649 -0.0275251 -0.0792404 0.00609171 0 0 4.06062 0 0 
249 1 249 0.379797 0.939974 0 0 -0.190873 -0.0388819 -0.0736625 0.0221066 0 0 4.24543 0 0 
250 1 250 0.379816 0.979983 0 0 -0.13904 -0.0102052 -0.0478337 0.0114427 0 0 4.6861 0 0 
251 1 251 0.419975 0.0199874 0 0 -0.0954609 -0.205098 -0.0963654 -0.101762 0 0 -0.419686 0 0 
252 1 252 0.419929 0.0599619 0 0 -0.105293 -0.202138 -0.0985672 -0.093819 0 0 -0.306196 0 0 
253 1 253 0.419888 0.0999391 0 0 -0.127566 -0.194183 -0.103164 -0.0972757 0 0 0.212844 0 0 
254 1 254 0.419848 0.139919 0 0 -0.145783 -0.182147 -0.105148 -0.100726 0 0 1.15468 0 0 
255 1 255 0.419807 0.179903 0 0 -0.163692 -0.169504 -0.106842 -0.10539 0 0 2.16177 0 0 
256 1 256 0.419767 0.219888 0 0 -0.19273 -0.173309 -0.117385 -0.108418 0 0 3.10479 0 0 
257 1 257 0.41973 0.259878 0 0 -0.2114 -0.152578 -0.116722 -0.101761 0 0 3.76108 0 0 
258 1 258 0.419701 0.299869 0 0 -0.242877 -0.167443 -0.1316 -0.0880672 0 0 4.38518 0 0 
259 1 259 0.419684 0.339862 0 0 -0.24989 -0.151088 -0.1286 -0.0644379 0 0 3.85217 0 0 
260 1 260 0.41968 0.379857 0 0 -0.262877 -0.153255 -0.133462 -0.0519551 0 0 3.68792 0 0 
261 1 261 0.419684 0.419854 0 0 -0.264471 -0.142431 -0.130498 -0.0358063 0 0 2.84574 0 0 
262 1 262 0.419692 0.459852 0 0 -0.258226 -0.120979 -0.121606 -0.0412365 0 0 1.74008 0 0 
263 1 263 0.419698 0.499854 0 0 -0.269708 -0.116495 -0.123854 -0.0448957 0 0 1.10338 0 0 
264 1 264 0.419701 0.539858 0 0 -0.263408 -0.0839656 -0.111388 -0.0436767 0 0 0.0576656 0 0 
265 1 265 0.4197 0.579865 0 0 -0.25798 -0.0707075 -0.105391 -0.0512447 0 0 0.255981 0 0 
266 1 266 0.419695 0.619873 0 0 -0.249052 -0.0675722 -0.101525 -0.0449807 0 0 -0.187546 0 0 
267 1 267 0.419691 0.659882 0 0 -0.216692 -0.0436088 -0.0834505 -0.0448544 0 0 0.0687296 0 0 
268 1 268 0.419689 0.69989 0 0 -0.220764 -0.0584166 -0.0895064 -0.0442393 0 0 0.603916 0 0 
269 1 269 0.41969 0.739899 0 0 -0.22038 -0.030828 -0.0805293 -0.0347606 0 0 0.979692 0 0 
270 1 270 0.419696 0.779911 0 0 -0.23688 -0.0432748 -0.0898194 -0.0229771 0 0 1.48239 0 0 
271 1 271 0.419705 0.819923 0 0 -0.242327 -0.0233384 -0.0851705 -0.0231281 0 0 2.56145 0 0 
272 1 272 0.41972 0.859937 0 0 -0.244993 -0.0402424 -0.0914573 0.00282463 0 0 2.69862 0 0 
273 1 273 0.419741 0.899949 0 0 -0.213436 -0.0279781 -0.0773968 -0.00121306 0 0 3.92193 0 0 
274 1 274 0.419766 0.939959 0 0 -0.18974 -0.0353207 -0.0721603 0.0227915 0 0 3.95997 0 0 
275 1 275 0.419792 0.979969 0 0 -0.151785 -0.00345396 -0.0497568 0.0089168 0 0 4.31614 0 0 
276 1 276 0.459977 0.0199867 0 0 -0.106276 -0.21793 -0.103956 -0.101888 0 0 -0.0475972 0 0 
277 1 277 0.459932 0.0599597 0 0 -0.116664 -0.216834 -0.106933 -0.0989828 0 0 0.412818 0 0 
278 1 278 0.459886 0.099935 0 0 -0.131371 -0.211028 -0.109792 -0.102127 0 0 0.676793 0 0 
279 1 279 0.45984 0.139913 0 0 -0.146431 -0.191218 -0.108269 -0.104946 0 0 1.34124 0 0 
280 1 280 0.459795 0.179895 0 0 -0.174591 -0.187231 -0.116031 -0.109748 0 0 2.04649 0 0 
281 1 281 0.45975 0.219878 0 0 -0.199088 -0.190692 -0.125005 -0.10805 0 0 2.80932 0 0 
282 1 282 0.45971 0.259865 0 0 -0.206128 -0.168959 -0.120288 -0.101921 0 0 3.7346 0 0 
283 1 283 0.459678 0.299853 0 0 -0.23548 -0.187848 -0.135776 -0.0860602 0 0 4.4776 0 0 
284 1 284 0.459659 0.339843 0 0 -0.24909 -0.17198 -0.135051 -0.0589023 0 0 4.37544 0 0 
285 1 285 0.459652 0.379835 0 0 -0.269058 -0.167774 -0.140109 -0.0473856 0 0 4.54166 0 0 
286 1 286 0.459655 0.419829 0 0 -0.289426 -0.161343 -0.144584 -0.0288511 0 0 3.93768 0 0 
287 1 287 0.459662 0.459827 0 0 -0.308747 -0.14849 -0.146664 -0.033011 0 0 3.23125 0 0 
288 1 288 0.459668 0.499828 0 0 -0.320998 -0.132735 -0.145543 -0.0342448 0 0 2.99086 0 0 
289 1 289 0.459676 0.539833 0 0 -0.320814 -0.107345 -0.137325 -0.0281298 0 0 2.1988 0 0 
290 1 290 0.459685 0.579842 0 0 -0.321713 -0.0938245 -0.133271 -0.0387291 0 0 2.58569 0 0 
291 1 291 0.459692 0.619851 0 0 -0.32375 -0.088848 -0.132331 -0.0374008 0 0 2.74531 0 0 
292 1 292 0.459696 0.659862 0 0 -0.318705 -0.0841465 -0.129201 -0.0406844 0 0 3.11672 0 0 
293 1 293 0.459692 0.699872 0 0 -0.311333 -0.09638 -0.130762 -0.0524056 0 0 3.58856 0 0 
294 1 294 0.459684 0.739882 0 0 -0.289691 -0.0687664 -0.114946 -0.0466288 0 0 3.46829 0 0 
295 1 295 0.45968 0.779892 0 0 -0.29588 -0.0766036 -0.119452 -0.0397299 0 0 3.43171 0 0 
296 1 296 0.459681 0.819904 0 0 -0.277241 -0.0486344 -0.10449 -0.0375477 0 0 4.01489 0 0 
297 1 297 0.459692 0.859916 0 0 -0.261891 -0.0556068 -0.101809 -0.00272413 0 0 3.56517 0 0 
298 1 298 0.459713 0.899927 0 0 -0.238051 -0.0417499 -0.0897119 -0.00622154 0 0 4.55476 0 0 
299 1 299 0.459739 0.939938 0 0 -0.2186 -0.0384497 -0.082421 0.0182695 0 0 4.22664 0 0 
300 1 300 0.459766 0.97995 0 0 -0.191336 -0.00892863 -0.0641955 0.00179691 0 0 4.45216 0 0 
301 1 301 0.499975 0.0199863 0 0 -0.102303 -0.222243 -0.104066 -0.102272 0 0 -0.0109492 0 0 
302 1 302 0.499926 0.0599587 0 0 -0.107976 -0.215408 -0.103688 -0.103749 0 0 0.378779 0 0 
303 1 303 0.499878 0.0999335 0 0 -0.134503 -0.217105 -0.112749 -0.104385 0 0 0.607683 0 0 
304 1 304 0.499829 0.13991 0 0 -0.154441 -0.203107 -0.114656 -0.105398 0 0 1.20986 0 0 
305 1 305 0.49978 0.179891 0 0 -0.173789 -0.196848 -0.11886 -0.10997 0 0 1.64172 0 0 
306 1 306 0.499732 0.219873 0 0 -0.19243 -0.198504 -0.125376 -0.104699 0 0 2.28976 0 0 
307 1 307 0.499689 0.259857 0 0 -0.201909 -0.187018 -0.12473 -0.0991975 0 0 3.20978 0 0 
308 1 308 0.499654 0.299842 0 0 -0.216727 -0.199389 -0.133458 -0.0815278 0 0 3.95822 0 0 
309 1 309 0.499632 0.339828 0 0 -0.214015 -0.173116 -0.124151 -0.0561552 0 0 4.30506 0 0 
310 1 310 0.499623 0.379818 0 0 -0.224226 -0.163653 -0.124388 -0.0450557 0 0 4.3135 0 0 
311 1 311 0.499621 0.419811 0 0 -0.224286 -0.137803 -0.116109 -0.0285231 0 0 3.59322 0 0 
312 1 312 0.499624 0.459808 0 0 -0.222644 -0.109121 -0.106382 -0.0357797 0 0 2.79144 0 0 
313 1 313 0.499624 0.49981 0 0 -0.224747 -0.085889 -0.099604 -0.038242 0 0 2.05176 0 0 
314 1 314 0.499623 0.539814 0 0 -0.238329 -0.0687867 -0.0984705 -0.0394939 0 0 1.21539 0 0 
315 1 315 0.499619 0.579823 0 0 -0.251289 -0.0599175 -0.0997806 -0.0444748 0 0 0.979856 0 0 
316 1 316 0.499615 0.619833 0 0 -0.237486 -0.0470076 -0.0912101 -0.037766 0 0 0.519023 0 0 
317 1 317 0.499614 0.659843 0 0 -0.216538 -0.0360055 -0.0809591 -0.0395068 0 0 0.568388 0 0 
318 1 318 0.499615 0.699852 0 0 -0.219032 -0.0560362 -0.0881862 -0.0516314 0 0 1.05612 0 0 
319 1 319 0.499616 0.73986 0 0 -0.216994 -0.0456767 -0.0842064 -0.051403 0 0 1.51058 0 0 
320 1 320 0.49962 0.779869 0 0 -0.233857 -0.0574799 -0.0934082 -0.0485335 0 0 2.12033 0 0 
321 1 321 0.499628 0.819879 0 0 -0.236723 -0.0437921 -0.089933 -0.0423373 0 0 3.03885 0 0 
322 1 322 0.499646 0.859889 0 0 -0.240906 -0.0494667 -0.0931017 -0.00838931 0 0 3.06759 0 0 
323 1 323 0.499673 0.8999 0 0 -0.230886 -0.038705 -0.0864328 -0.0109393 0 0 4.33448 0 0 
324 1 324 0.499703 0.939912 0 0 -0.219932 -0.0276595 -0.0793812 0.0154807 0 0 3.95474 0 0 
325 1 325 0.499733 0.979926 0 0 -0.212124 -0.00276992 -0.0688849 -0.00635856 0 0 4.4133 0 0 
326 1 326 0.539977 0.0199859 0 0 -0.121381 -0.235361 -0.1144 -0.104111 0 0 0.46213 0 0 
327 1 327 0.539927 0.0599582 0 0 -0.133648 -0.223698 -0.114591 -0.108231 0 0 1.1224 0 0 
328 1 328 0.539875 0.0999334 0 0 -0.145724 -0.220392 -0.117407 -0.109192 0 0 1.06699 0 0 