ITEM: TIMESTEP
0
ITEM: NUMBER OF ATOMS
6875
ITEM: BOX BOUNDS sm sm sm
0 4
0 2
0 0
ITEM: ATOMS id type tag x y z damage s11 s22 s33 s12 s13 s23 vx T ienergy 
1 1 1 0.0199955 0.0199982 0 0 -0.0517551 -0.0517794 -0.0331715 -0.0185946 0 0 -0.00785997 0 0 
2 1 2 0.0199921 0.0599946 0 0 -0.0860273 -0.0502857 -0.0436718 -0.0245139 0 0 0.14731 0 0 
3 1 3 0.0199925 0.0999942 0 0 -0.0999131 -0.0537889 -0.0492514 -0.0290452 0 0 0.191549 0 0 
4 1 4 0.0199929 0.139992 0 0 -0.117087 -0.0619021 -0.0573617 -0.0349694 0 0 -0.0555269 0 0 
5 1 5 0.01999 0.179992 0 0 -0.142485 -0.0744738 -0.0695358 -0.0403544 0 0 -0.325096 0 0 
6 1 6 0.019989 0.21999 0 0 -0.161391 -0.0781529 -0.0767787 -0.0420428 0 0 -0.200071 0 0 
7 1 7 0.0199883 0.259991 0 0 -0.167343 -0.0839952 -0.080562 -0.0411335 0 0 -0.197212 0 0 
8 1 8 0.0199885 0.29999 0 0 -0.168082 -0.0763327 -0.0783385 -0.0455199 0 0 -0.0818277 0 0 
9 1 9 0.0199869 0.339991 0 0 -0.177344 -0.0857173 -0.0843203 -0.0416679 0 0 -0.157239 0 0 
10 1 10 0.0199858 0.37999 0 0 -0.189238 -0.0852758 -0.0879928 -0.0469851 0 0 0.019224 0 0 
11 1 11 0.0199817 0.419992 0 0 -0.218371 -0.100278 -0.102155 -0.0420525 0 0 0.0671769 0 0 
12 1 12 0.019977 0.459992 0 0 -0.245053 -0.108098 -0.113231 -0.0414712 0 0 -0.0136907 0 0 
13 1 13 0.0199692 0.499995 0 0 -0.277221 -0.125476 -0.129137 -0.0344496 0 0 -0.332672 0 0 
14 1 14 0.019965 0.539995 0 0 -0.303902 -0.131272 -0.139568 -0.03106 0 0 -0.392185 0 0 
15 1 15 0.0199608 0.579997 0 0 -0.330049 -0.149732 -0.153896 -0.0199906 0 0 -0.0200624 0 0 
16 1 16 0.0199539 0.619997 0 0 -0.344094 -0.145311 -0.156988 -0.016438 0 0 0.22431 0 0 
17 1 17 0.0199397 0.659999 0 0 -0.359151 -0.155299 -0.165035 0.000644166 0 0 -0.485048 0 0 
18 1 18 0.0199329 0.700001 0 0 -0.366405 -0.143388 -0.163539 0.00837771 0 0 -1.05704 0 0 
19 1 19 0.0199344 0.740007 0 0 -0.38208 -0.15806 -0.173288 0.0347226 0 0 -1.14571 0 0 
20 1 20 0.0199451 0.78001 0 0 -0.39024 -0.150453 -0.173465 0.044176 0 0 -0.479583 0 0 
21 1 21 0.0199494 0.820017 0 0 -0.412996 -0.169933 -0.187036 0.0733104 0 0 -0.637052 0 0 
22 1 22 0.019957 0.86002 0 0 -0.414265 -0.160895 -0.184539 0.087286 0 0 -0.455413 0 0 
23 1 23 0.0199583 0.900028 0 0 -0.450865 -0.1793 -0.202217 0.109326 0 0 -0.0227175 0 0 
24 1 24 0.0199633 0.940032 0 0 -0.467565 -0.182171 -0.208518 0.139359 0 0 -0.147483 0 0 
25 1 25 0.0199467 0.980052 0 0 -0.625489 -0.134667 -0.254005 0.132089 0 0 -0.0257364 0 0 
26 1 26 0.0599961 0.0199956 0 0 -0.0545176 -0.0860602 -0.0450446 -0.0252262 0 0 0.13949 0 0 
27 1 27 0.0599904 0.0599872 0 0 -0.0720809 -0.0664229 -0.0443789 -0.0178218 0 0 0.346038 0 0 
28 1 28 0.059984 0.0999838 0 0 -0.0930613 -0.0650366 -0.050658 -0.0213908 0 0 0.0861694 0 0 
29 1 29 0.0599801 0.13998 0 0 -0.114183 -0.0745152 -0.0604682 -0.0291161 0 0 -0.240121 0 0 
30 1 30 0.0599755 0.179977 0 0 -0.129852 -0.0774179 -0.0664297 -0.0329521 0 0 -0.516951 0 0 
31 1 31 0.0599731 0.219974 0 0 -0.137857 -0.071804 -0.0671975 -0.0308774 0 0 -0.364595 0 0 
32 1 32 0.0599707 0.259974 0 0 -0.153855 -0.0824663 -0.0757499 -0.0259373 0 0 -0.532416 0 0 
33 1 33 0.0599701 0.299972 0 0 -0.161892 -0.0736882 -0.075509 -0.0339876 0 0 -0.14313 0 0 
34 1 34 0.0599677 0.339973 0 0 -0.182544 -0.0883001 -0.0868229 -0.0282883 0 0 -0.14526 0 0 
35 1 35 0.0599664 0.379972 0 0 -0.198644 -0.0888788 -0.0921721 -0.0405101 0 0 0.201533 0 0 
36 1 36 0.0599619 0.419974 0 0 -0.223018 -0.0941837 -0.101694 -0.036731 0 0 0.195994 0 0 
37 1 37 0.0599609 0.459975 0 0 -0.24986 -0.101968 -0.112811 -0.0386371 0 0 0.232499 0 0 
38 1 38 0.0599589 0.499978 0 0 -0.282555 -0.110675 -0.126102 -0.03274 0 0 0.379069 0 0 
39 1 39 0.0599572 0.539982 0 0 -0.309387 -0.119096 -0.137422 -0.0274489 0 0 0.19299 0 0 
40 1 40 0.0599536 0.579988 0 0 -0.333719 -0.126214 -0.147521 -0.015428 0 0 -0.289004 0 0 
41 1 41 0.0599571 0.619995 0 0 -0.351288 -0.124225 -0.152527 -0.009468 0 0 -0.27336 0 0 
42 1 42 0.0599646 0.660004 0 0 -0.376957 -0.125089 -0.161049 0.00586216 0 0 0.649578 0 0 
43 1 43 0.0599693 0.700013 0 0 -0.393043 -0.122877 -0.165507 0.0116349 0 0 1.82603 0 0 
44 1 44 0.0599618 0.740025 0 0 -0.405146 -0.111989 -0.165897 0.0309053 0 0 1.93604 0 0 
45 1 45 0.0599505 0.780037 0 0 -0.419608 -0.122761 -0.174004 0.0394461 0 0 1.85904 0 0 
46 1 46 0.0599395 0.82005 0 0 -0.417933 -0.100701 -0.166375 0.0625954 0 0 1.95817 0 0 
47 1 47 0.0599316 0.860065 0 0 -0.45329 -0.132025 -0.187809 0.0792103 0 0 1.77828 0 0 
48 1 48 0.0599213 0.900079 0 0 -0.433912 -0.0962337 -0.170069 0.0935388 0 0 1.56873 0 0 
49 1 49 0.0599071 0.940102 0 0 -0.523066 -0.0847725 -0.195046 0.115943 0 0 0.65564 0 0 
50 1 50 0.0598701 0.980135 0 0 -0.483796 0.0233258 -0.147704 0.0186326 0 0 0.801832 0 0 
51 1 51 0.0999909 0.0199949 0 0 -0.049363 -0.0903001 -0.0447663 -0.0306847 0 0 0.182671 0 0 
52 1 52 0.0999784 0.0599851 0 0 -0.0631521 -0.0812901 -0.0462893 -0.0206517 0 0 0.310485 0 0 
53 1 53 0.0999726 0.099978 0 0 -0.0851693 -0.0793664 -0.0527229 -0.0212689 0 0 -0.0627928 0 0 
54 1 54 0.0999678 0.139972 0 0 -0.0975815 -0.0742269 -0.055055 -0.0243643 0 0 -0.179445 0 0 
55 1 55 0.099961 0.179969 0 0 -0.103436 -0.0692103 -0.0553285 -0.0260708 0 0 -0.324511 0 0 
56 1 56 0.0999552 0.219966 0 0 -0.120038 -0.069949 -0.0608907 -0.0261826 0 0 -0.162955 0 0 
57 1 57 0.0999512 0.259964 0 0 -0.142131 -0.0785556 -0.0707393 -0.0214603 0 0 -0.466526 0 0 
58 1 58 0.0999477 0.299963 0 0 -0.15477 -0.0760856 -0.0739988 -0.0297328 0 0 -0.109995 0 0 
59 1 59 0.0999427 0.339963 0 0 -0.1726 -0.0829585 -0.0819241 -0.0258533 0 0 -0.0338991 0 0 
60 1 60 0.0999361 0.379963 0 0 -0.196432 -0.0892096 -0.0915728 -0.0392978 0 0 0.373789 0 0 
61 1 61 0.0999248 0.419965 0 0 -0.22478 -0.0907068 -0.101148 -0.0386206 0 0 0.333473 0 0 
62 1 62 0.0999112 0.459968 0 0 -0.265909 -0.103732 -0.118532 -0.041814 0 0 -0.00398558 0 0 
63 1 63 0.099895 0.499974 0 0 -0.293727 -0.0989163 -0.125917 -0.0365695 0 0 -0.500759 0 0 
64 1 64 0.0998824 0.53998 0 0 -0.323045 -0.109296 -0.138662 -0.0261333 0 0 -0.866073 0 0 
65 1 65 0.0998724 0.579988 0 0 -0.3468 -0.104157 -0.144637 -0.0172777 0 0 -0.179504 0 0 
66 1 66 0.0998583 0.619997 0 0 -0.372539 -0.109877 -0.154744 -0.00582989 0 0 0.178814 0 0 
67 1 67 0.0998394 0.660008 0 0 -0.378865 -0.0943141 -0.151776 0.00252201 0 0 6.28571e-05 0 0 
68 1 68 0.0998263 0.700022 0 0 -0.393419 -0.0943157 -0.156454 0.0171184 0 0 -0.528697 0 0 
69 1 69 0.0998246 0.740038 0 0 -0.399834 -0.0707323 -0.15094 0.0253953 0 0 -0.215002 0 0 
70 1 70 0.0998289 0.780057 0 0 -0.428615 -0.0862977 -0.165186 0.0417931 0 0 -0.0559448 0 0 
71 1 71 0.0998321 0.820079 0 0 -0.424505 -0.056883 -0.154415 0.0526025 0 0 -0.0103445 0 0 
72 1 72 0.0998334 0.860102 0 0 -0.432272 -0.066189 -0.159908 0.0677125 0 0 0.00459078 0 0 
73 1 73 0.0998323 0.900127 0 0 -0.459601 -0.0461527 -0.16224 0.0783751 0 0 0.607356 0 0 
74 1 74 0.0998182 0.940157 0 0 -0.450489 -0.00248165 -0.145289 0.0353391 0 0 0.79575 0 0 
75 1 75 0.0997861 0.98019 0 0 -0.425256 -0.0183863 -0.142298 0.0166471 0 0 0.398393 0 0 
76 1 76 0.139994 0.0199948 0 0 -0.0515667 -0.0938186 -0.0465981 -0.0355126 0 0 0.324961 0 0 
77 1 77 0.139981 0.0599829 0 0 -0.0673519 -0.095894 -0.0523175 -0.0274775 0 0 0.481108 0 0 
78 1 78 0.139969 0.0999747 0 0 -0.0750829 -0.0840141 -0.0509894 -0.0239255 0 0 0.01668 0 0 
79 1 79 0.13996 0.139968 0 0 -0.0801126 -0.0673789 -0.0472639 -0.0213151 0 0 0.0696706 0 0 
80 1 80 0.139952 0.179964 0 0 -0.0965557 -0.0720602 -0.0540362 -0.024153 0 0 -0.205724 0 0 
81 1 81 0.139944 0.219959 0 0 -0.110581 -0.0716351 -0.0583974 -0.026344 0 0 -0.191057 0 0 
82 1 82 0.139937 0.259957 0 0 -0.127115 -0.0746523 -0.0646695 -0.0196581 0 0 -0.330454 0 0 
83 1 83 0.139932 0.299954 0 0 -0.146963 -0.079128 -0.072474 -0.0291784 0 0 0.116096 0 0 
84 1 84 0.139924 0.339954 0 0 -0.176113 -0.0869198 -0.0843271 -0.0279044 0 0 0.312374 0 0 
85 1 85 0.139916 0.379953 0 0 -0.209588 -0.0942058 -0.0974013 -0.0436999 0 0 0.663914 0 0 
86 1 86 0.139903 0.419955 0 0 -0.242444 -0.0974483 -0.108982 -0.0436081 0 0 0.435572 0 0 
87 1 87 0.139891 0.459958 0 0 -0.276656 -0.0987402 -0.120379 -0.0475522 0 0 0.219074 0 0 
88 1 88 0.139879 0.499965 0 0 -0.31028 -0.0948873 -0.129938 -0.0385888 0 0 0.114425 0 0 
89 1 89 0.139869 0.539974 0 0 -0.344116 -0.0991326 -0.142165 -0.0301237 0 0 -0.251254 0 0 
90 1 90 0.139858 0.579987 0 0 -0.363 -0.0913824 -0.145739 -0.0204852 0 0 -0.426822 0 0 
91 1 91 0.139855 0.620001 0 0 -0.376394 -0.0846337 -0.147876 -0.0102366 0 0 -0.364941 0 0 
92 1 92 0.139856 0.660019 0 0 -0.402526 -0.0818565 -0.155377 -0.0024062 0 0 1.09518 0 0 
93 1 93 0.139855 0.700038 0 0 -0.430017 -0.0785408 -0.163147 0.00942314 0 0 2.21111 0 0 
94 1 94 0.139842 0.74006 0 0 -0.437392 -0.0639591 -0.160831 0.0209718 0 0 2.49253 0 0 
95 1 95 0.139825 0.780083 0 0 -0.442906 -0.0535437 -0.15926 0.0300458 0 0 2.14685 0 0 
96 1 96 0.139811 0.82011 0 0 -0.455856 -0.0467832 -0.161244 0.0457012 0 0 1.96415 0 0 
97 1 97 0.1398 0.860137 0 0 -0.469582 -0.0375117 -0.162676 0.0509508 0 0 1.96279 0 0 
98 1 98 0.139783 0.900168 0 0 -0.456792 -0.0140691 -0.151031 0.0438131 0 0 1.69191 0 0 
99 1 99 0.139761 0.940199 0 0 -0.450554 -0.0247348 -0.152469 0.0266834 0 0 1.38497 0 0 
100 1 100 0.139729 0.980231 0 0 -0.426996 0.00989419 -0.133781 0.000647414 0 0 1.1471 0 0 
101 1 101 0.179989 0.0199942 0 0 -0.051418 -0.10055 -0.0486954 -0.0406738 0 0 0.076315 0 0 
102 1 102 0.179972 0.0599818 0 0 -0.0623634 -0.0981628 -0.0514434 -0.032637 0 0 0.2689 0 0 
103 1 103 0.179961 0.0999734 0 0 -0.0681852 -0.0781399 -0.046897 -0.0249 0 0 0.107238 0 0 
104 1 104 0.179952 0.139966 0 0 -0.0770064 -0.0691374 -0.0468347 -0.0223136 0 0 0.0789179 0 0 
105 1 105 0.179941 0.179962 0 0 -0.0914016 -0.0758758 -0.0536074 -0.0248925 0 0 -0.195711 0 0 
106 1 106 0.17993 0.219957 0 0 -0.0998225 -0.0689882 -0.0540941 -0.0264562 0 0 0.0901494 0 0 
107 1 107 0.179921 0.259954 0 0 -0.123419 -0.0785345 -0.0647253 -0.0223366 0 0 0.073064 0 0 
108 1 108 0.179912 0.299951 0 0 -0.152258 -0.0868947 -0.0766651 -0.0322146 0 0 0.310282 0 0 
109 1 109 0.179899 0.33995 0 0 -0.185675 -0.0943775 -0.0897918 -0.0339654 0 0 0.484533 0 0 
110 1 110 0.179883 0.37995 0 0 -0.221027 -0.0992513 -0.102695 -0.0483223 0 0 0.72174 0 0 
111 1 111 0.179862 0.419952 0 0 -0.257119 -0.100405 -0.114643 -0.0507318 0 0 0.520615 0 0 
112 1 112 0.179837 0.459957 0 0 -0.298252 -0.0994547 -0.127542 -0.0557733 0 0 0.155935 0 0 
113 1 113 0.17981 0.499966 0 0 -0.326019 -0.0917996 -0.134002 -0.0448369 0 0 -0.702139 0 0 
114 1 114 0.179788 0.539978 0 0 -0.349829 -0.0836888 -0.139041 -0.0362165 0 0 -0.990108 0 0 
115 1 115 0.179769 0.579992 0 0 -0.382328 -0.0785034 -0.147813 -0.0235718 0 0 -0.333155 0 0 
116 1 116 0.179748 0.620008 0 0 -0.409639 -0.0782219 -0.156497 -0.00949929 0 0 0.0925002 0 0 
117 1 117 0.179723 0.660027 0 0 -0.409861 -0.0573171 -0.149852 -0.00342249 0 0 0.177058 0 0 
118 1 118 0.179704 0.700049 0 0 -0.41131 -0.0487972 -0.147586 0.0107856 0 0 -0.33014 0 0 
119 1 119 0.179697 0.740075 0 0 -0.42233 -0.0295887 -0.144954 0.0176047 0 0 -0.127129 0 0 
120 1 120 0.179696 0.780103 0 0 -0.440345 -0.0357171 -0.152711 0.0283804 0 0 -0.114812 0 0 
121 1 121 0.179696 0.820132 0 0 -0.429371 -0.00650602 -0.139801 0.0353618 0 0 -0.142069 0 0 
122 1 122 0.179694 0.860164 0 0 -0.434653 -0.00977073 -0.142543 0.0370787 0 0 -0.224958 0 0 
123 1 123 0.17969 0.900197 0 0 -0.432598 0.00802692 -0.136166 0.032621 0 0 0.473027 0 0 
124 1 124 0.179677 0.940231 0 0 -0.430448 0.00293936 -0.137133 0.0115777 0 0 0.840236 0 0 
125 1 125 0.179652 0.980263 0 0 -0.387773 0.00990378 -0.121193 -0.00062505 0 0 0.705783 0 0 
126 1 126 0.219992 0.0199935 0 0 -0.0612935 -0.111366 -0.0553312 -0.0434276 0 0 -0.0866461 0 0 
127 1 127 0.219975 0.059981 0 0 -0.0679895 -0.0965279 -0.052719 -0.0337839 0 0 0.0656564 0 0 
128 1 128 0.219958 0.0999728 0 0 -0.0694845 -0.0788764 -0.0475439 -0.0268309 0 0 -0.15307 0 0 
129 1 129 0.219945 0.139966 0 0 -0.0825187 -0.0760112 -0.050805 -0.0267484 0 0 -0.0289255 0 0 
130 1 130 0.219934 0.17996 0 0 -0.0950175 -0.0795702 -0.0559512 -0.0251939 0 0 0.0235982 0 0 
131 1 131 0.219922 0.219955 0 0 -0.101768 -0.0710684 -0.0553834 -0.0290943 0 0 0.289823 0 0 
132 1 132 0.219909 0.259951 0 0 -0.135818 -0.0908733 -0.072656 -0.0287295 0 0 0.247002 0 0 
133 1 133 0.219895 0.299947 0 0 -0.168649 -0.0934332 -0.0840176 -0.0370593 0 0 0.486282 0 0 
134 1 134 0.219878 0.339946 0 0 -0.20804 -0.104003 -0.100057 -0.0384856 0 0 0.732582 0 0 
135 1 135 0.219858 0.379946 0 0 -0.246891 -0.105712 -0.113074 -0.0498698 0 0 0.86794 0 0 
136 1 136 0.219835 0.419949 0 0 -0.282227 -0.108662 -0.12536 -0.0500438 0 0 0.557137 0 0 
137 1 137 0.219811 0.459954 0 0 -0.311245 -0.0964424 -0.130754 -0.0573808 0 0 0.387727 0 0 
138 1 138 0.219788 0.499964 0 0 -0.350081 -0.0953663 -0.142881 -0.0415267 0 0 -0.029378 0 0 
139 1 139 0.219768 0.539977 0 0 -0.378217 -0.0820647 -0.147642 -0.0375524 0 0 -0.0802623 0 0 
140 1 140 0.219748 0.579995 0 0 -0.387086 -0.0643397 -0.144797 -0.0243168 0 0 -0.317891 0 0 
141 1 141 0.219738 0.620016 0 0 -0.397039 -0.0560107 -0.14532 -0.0162383 0 0 -0.168257 0 0 
142 1 142 0.219733 0.660041 0 0 -0.427384 -0.0461347 -0.151891 -0.0141401 0 0 1.32974 0 0 
143 1 143 0.219725 0.700067 0 0 -0.466492 -0.0582736 -0.168355 -0.0026339 0 0 2.22922 0 0 
144 1 144 0.219708 0.740095 0 0 -0.468964 -0.0391206 -0.162995 0.000975512 0 0 2.55435 0 0 
145 1 145 0.219687 0.780124 0 0 -0.474209 -0.0339589 -0.163021 0.0129939 0 0 1.80867 0 0 
146 1 146 0.219669 0.820156 0 0 -0.485986 -0.0269141 -0.164537 0.0181381 0 0 1.71628 0 0 
147 1 147 0.219656 0.860188 0 0 -0.487484 -0.0217426 -0.163359 0.0229524 0 0 1.54348 0 0 
148 1 148 0.219639 0.900223 0 0 -0.470443 -0.00383731 -0.152129 0.01786 0 0 1.41644 0 0 
149 1 149 0.21962 0.940256 0 0 -0.454965 -0.00701875 -0.148205 0.00403611 0 0 1.32048 0 0 
150 1 150 0.219596 0.98029 0 0 -0.433993 -0.000977077 -0.139528 -0.00542675 0 0 1.67604 0 0 
151 1 151 0.259987 0.0199939 0 0 -0.0530823 -0.106535 -0.0511528 -0.0465208 0 0 -0.342064 0 0 
152 1 152 0.259965 0.0599816 0 0 -0.061077 -0.0917242 -0.048961 -0.039 0 0 -0.211821 0 0 
153 1 153 0.25995 0.0999732 0 0 -0.0811523 -0.0884858 -0.0543627 -0.0322503 0 0 -0.367493 0 0 
154 1 154 0.259936 0.139965 0 0 -0.0926182 -0.0824585 -0.0561071 -0.0313362 0 0 -0.192551 0 0 
155 1 155 0.259922 0.17996 0 0 -0.104376 -0.0801874 -0.059149 -0.0262851 0 0 -0.145655 0 0 
156 1 156 0.259907 0.219955 0 0 -0.128269 -0.0879882 -0.0693082 -0.0343953 0 0 0.0837552 0 0 
157 1 157 0.25989 0.259952 0 0 -0.164756 -0.103646 -0.0860344 -0.0364518 0 0 0.28684 0 0 
158 1 158 0.259871 0.299948 0 0 -0.194002 -0.100548 -0.0944304 -0.0422301 0 0 0.574504 0 0 
159 1 159 0.259848 0.339948 0 0 -0.229666 -0.109205 -0.10866 -0.0455698 0 0 0.773037 0 0 
160 1 160 0.25982 0.379949 0 0 -0.260216 -0.104558 -0.116978 -0.0577379 0 0 0.759567 0 0 
161 1 161 0.259788 0.419954 0 0 -0.29742 -0.108434 -0.130167 -0.0574447 0 0 0.409191 0 0 
162 1 162 0.259751 0.459961 0 0 -0.324227 -0.0957796 -0.134716 -0.0645631 0 0 0.195921 0 0 
163 1 163 0.259713 0.499973 0 0 -0.339625 -0.0814514 -0.135062 -0.0474381 0 0 -0.602612 0 0 
164 1 164 0.259682 0.539988 0 0 -0.357807 -0.064756 -0.135534 -0.0442654 0 0 -0.609685 0 0 
165 1 165 0.259655 0.580006 0 0 -0.389725 -0.0540659 -0.142347 -0.0269628 0 0 -0.0963992 0 0 
166 1 166 0.259627 0.620026 0 0 -0.424346 -0.059072 -0.155074 -0.0191042 0 0 0.4351 0 0 
167 1 167 0.259595 0.66005 0 0 -0.416433 -0.0297004 -0.143095 -0.0151633 0 0 0.416144 0 0 
168 1 168 0.259569 0.700076 0 0 -0.413996 -0.0251395 -0.140847 -0.00457262 0 0 -0.368005 0 0 
169 1 169 0.259557 0.740106 0 0 -0.43273 -0.0152688 -0.143694 -0.00277436 0 0 -0.0733885 0 0 
170 1 170 0.259553 0.780137 0 0 -0.453717 -0.0169571 -0.150977 0.00807132 0 0 -0.235147 0 0 
171 1 171 0.25955 0.82017 0 0 -0.452177 -0.00676728 -0.147204 0.00996575 0 0 -0.201609 0 0 
172 1 172 0.259546 0.860204 0 0 -0.455985 -0.00274667 -0.147142 0.0151211 0 0 -0.528079 0 0 
173 1 173 0.259542 0.900239 0 0 -0.458905 0.0080809 -0.144598 0.00733176 0 0 0.250754 0 0 
174 1 174 0.259533 0.940275 0 0 -0.4537 -0.000834175 -0.145813 0.00350849 0 0 0.712403 0 0 
175 1 175 0.259517 0.980309 0 0 -0.409663 0.0137867 -0.126973 -0.00372843 0 0 1.246 0 0 
176 1 176 0.29999 0.0199941 0 0 -0.0551749 -0.102463 -0.0505193 -0.0492317 0 0 -0.343608 0 0 
177 1 177 0.299968 0.0599821 0 0 -0.0673019 -0.097092 -0.052681 -0.0449739 0 0 -0.333679 0 0 
178 1 178 0.299946 0.099973 0 0 -0.0837636 -0.0926711 -0.056541 -0.0380345 0 0 -0.795886 0 0 
179 1 179 0.299927 0.139965 0 0 -0.103842 -0.0868852 -0.0611244 -0.0357172 0 0 -0.576072 0 0 
180 1 180 0.299911 0.17996 0 0 -0.126761 -0.0885883 -0.0690228 -0.0323666 0 0 -0.324314 0 0 
181 1 181 0.299894 0.219955 0 0 -0.153278 -0.10093 -0.0814842 -0.0417109 0 0 -0.118501 0 0 
182 1 182 0.299872 0.259951 0 0 -0.180724 -0.105594 -0.0917836 -0.0449491 0 0 0.295044 0 0 
183 1 183 0.299848 0.299949 0 0 -0.210329 -0.100569 -0.0996728 -0.0501666 0 0 0.588179 0 0 
184 1 184 0.299821 0.339949 0 0 -0.253994 -0.117471 -0.119115 -0.0545864 0 0 0.574525 0 0 
185 1 185 0.29979 0.379951 0 0 -0.28186 -0.105121 -0.124098 -0.0638732 0 0 0.580804 0 0 
186 1 186 0.299756 0.419957 0 0 -0.303945 -0.102587 -0.130381 -0.0615677 0 0 0.351294 0 0 
187 1 187 0.299722 0.459965 0 0 -0.314947 -0.0846657 -0.128167 -0.0668865 0 0 0.364317 0 0 
188 1 188 0.29969 0.499977 0 0 -0.34254 -0.0761364 -0.134292 -0.051793 0 0 0.233865 0 0 
189 1 189 0.299661 0.539992 0 0 -0.370249 -0.0631129 -0.139003 -0.05046 0 0 0.508418 0 0 
190 1 190 0.299633 0.580013 0 0 -0.372876 -0.0424669 -0.133211 -0.0323799 0 0 0.0706912 0 0 
191 1 191 0.299615 0.620037 0 0 -0.386088 -0.0335443 -0.134587 -0.0327289 0 0 0.33706 0 0 
192 1 192 0.299602 0.660064 0 0 -0.431229 -0.0362901 -0.149964 -0.028499 0 0 1.44715 0 0 
193 1 193 0.299589 0.700092 0 0 -0.4796 -0.0511859 -0.170287 -0.022731 0 0 2.14999 0 0 
194 1 194 0.299565 0.740122 0 0 -0.493814 -0.0424579 -0.17205 -0.0218618 0 0 2.47053 0 0 
195 1 195 0.299539 0.780152 0 0 -0.498718 -0.0371722 -0.171928 -0.00648638 0 0 1.56432 0 0 
196 1 196 0.299519 0.820185 0 0 -0.513367 -0.0333821 -0.175412 -0.00534275 0 0 1.86159 0 0 
197 1 197 0.299503 0.860218 0 0 -0.522165 -0.0325515 -0.17798 0.00387951 0 0 1.43854 0 0 
198 1 198 0.299487 0.900254 0 0 -0.50547 -0.0110719 -0.16571 -0.00123553 0 0 1.30558 0 0 
199 1 199 0.299471 0.940289 0 0 -0.491225 -0.0117757 -0.16138 -0.000505622 0 0 1.1962 0 0 
200 1 200 0.299457 0.980325 0 0 -0.479067 -0.0103766 -0.15702 -0.00492531 0 0 2.26184 0 0 
201 1 201 0.339985 0.0199945 0 0 -0.0491531 -0.0963085 -0.0466146 -0.053935 0 0 -0.499712 0 0 
202 1 202 0.339958 0.0599828 0 0 -0.0703751 -0.100655 -0.0548096 -0.0548392 0 0 -0.554844 0 0 
203 1 203 0.339936 0.0999735 0 0 -0.100338 -0.100243 -0.0642857 -0.0475247 0 0 -0.91348 0 0 
204 1 204 0.339915 0.139966 0 0 -0.122737 -0.096156 -0.0701585 -0.0437831 0 0 -0.836014 0 0 
205 1 205 0.339895 0.179961 0 0 -0.144858 -0.097324 -0.0776315 -0.0401729 0 0 -0.758497 0 0 
206 1 206 0.339873 0.219956 0 0 -0.176239 -0.107733 -0.0910372 -0.0503108 0 0 -0.426749 0 0 
207 1 207 0.339847 0.259954 0 0 -0.204756 -0.110078 -0.100937 -0.0536086 0 0 0.168721 0 0 
208 1 208 0.339818 0.299952 0 0 -0.232809 -0.107289 -0.109043 -0.0626092 0 0 0.47637 0 0 
209 1 209 0.339785 0.339954 0 0 -0.265523 -0.11637 -0.122461 -0.0662122 0 0 0.395948 0 0 
210 1 210 0.339747 0.379958 0 0 -0.272207 -0.0905927 -0.116331 -0.0728611 0 0 0.37096 0 0 
211 1 211 0.339707 0.419965 0 0 -0.29335 -0.0901025 -0.122966 -0.0718808 0 0 0.22438 0 0 
212 1 212 0.339662 0.459975 0 0 -0.310014 -0.0744279 -0.123289 -0.0776376 0 0 0.172465 0 0 
213 1 213 0.339617 0.499989 0 0 -0.317542 -0.0577113 -0.120345 -0.0632573 0 0 -0.238402 0 0 
214 1 214 0.339576 0.540005 0 0 -0.325778 -0.0374983 -0.116496 -0.0616718 0 0 0.0601844 0 0 
215 1 215 0.339541 0.580025 0 0 -0.361534 -0.0340822 -0.126876 -0.0407466 0 0 0.378317 0 0 
216 1 216 0.339505 0.620047 0 0 -0.400833 -0.036415 -0.140245 -0.0411691 0 0 0.920932 0 0 
217 1 217 0.339464 0.660072 0 0 -0.399829 -0.0217472 -0.135211 -0.0297014 0 0 0.292715 0 0 
218 1 218 0.339432 0.700098 0 0 -0.399551 -0.0135047 -0.132476 -0.0253967 0 0 -0.592847 0 0 
219 1 219 0.339413 0.740128 0 0 -0.433396 -0.0152984 -0.143919 -0.0246119 0 0 -0.13134 0 0 
220 1 220 0.339403 0.780159 0 0 -0.46968 -0.0249854 -0.158685 -0.00860707 0 0 -0.293894 0 0 
221 1 221 0.339396 0.820192 0 0 -0.476855 -0.0179986 -0.158742 -0.00940915 0 0 0.0576549 0 0 
222 1 222 0.339389 0.860227 0 0 -0.48317 -0.0111492 -0.15858 -0.000437104 0 0 -0.349594 0 0 
223 1 223 0.339384 0.900263 0 0 -0.499852 -0.00690117 -0.16257 -0.00626804 0 0 0.409176 0 0 
224 1 224 0.339378 0.9403 0 0 -0.499456 -0.00873252 -0.163047 0.00570762 0 0 0.70563 0 0 
225 1 225 0.33937 0.980337 0 0 -0.464406 0.0078449 -0.146456 -0.000742229 0 0 1.80398 0 0 
226 1 226 0.379988 0.019994 0 0 -0.0604488 -0.10423 -0.0527744 -0.0598575 0 0 -0.316883 0 0 
227 1 227 0.379961 0.0599821 0 0 -0.0798179 -0.105208 -0.059296 -0.0641371 0 0 -0.409169 0 0 
228 1 228 0.37993 0.0999729 0 0 -0.0956166 -0.095979 -0.0614039 -0.057823 0 0 -1.06126 0 0 
229 1 229 0.379903 0.139965 0 0 -0.127664 -0.0982192 -0.0724015 -0.0539903 0 0 -1.0961 0 0 
230 1 230 0.379879 0.179961 0 0 -0.161115 -0.102627 -0.0845499 -0.0482593 0 0 -0.948182 0 0 
231 1 231 0.379854 0.219956 0 0 -0.186286 -0.107455 -0.0941761 -0.0576905 0 0 -0.435254 0 0 
232 1 232 0.379824 0.259955 0 0 -0.21113 -0.106588 -0.101868 -0.0624112 0 0 0.0467667 0 0 
233 1 233 0.379791 0.299954 0 0 -0.239635 -0.110173 -0.112165 -0.0714407 0 0 0.249977 0 0 
234 1 234 0.379754 0.339956 0 0 -0.259964 -0.102437 -0.116209 -0.0726059 0 0 0.298118 0 0 
235 1 235 0.379715 0.37996 0 0 -0.277053 -0.0851627 -0.116146 -0.0771641 0 0 0.276411 0 0 
236 1 236 0.379675 0.419969 0 0 -0.293487 -0.08339 -0.120854 -0.0751665 0 0 0.0929836 0 0 
237 1 237 0.379634 0.459979 0 0 -0.291209 -0.0556672 -0.111224 -0.0791299 0 0 0.288048 0 0 
238 1 238 0.379596 0.499994 0 0 -0.31436 -0.0492987 -0.116615 -0.0676237 0 0 0.566145 0 0 
239 1 239 0.379558 0.540011 0 0 -0.344365 -0.0440313 -0.124555 -0.0671823 0 0 0.992637 0 0 
240 1 240 0.379521 0.580032 0 0 -0.351706 -0.0287997 -0.122022 -0.0503823 0 0 0.443172 0 0 
241 1 241 0.379494 0.620057 0 0 -0.368571 -0.0212107 -0.125006 -0.0575815 0 0 0.616271 0 0 
242 1 242 0.379474 0.660084 0 0 -0.427118 -0.0396173 -0.149715 -0.0487111 0 0 1.19252 0 0 
243 1 243 0.379452 0.700111 0 0 -0.487587 -0.0548893 -0.174047 -0.0506941 0 0 1.87481 0 0 
244 1 244 0.37942 0.74014 0 0 -0.506662 -0.0556725 -0.180424 -0.0451913 0 0 2.12188 0 0 
245 1 245 0.379388 0.78017 0 0 -0.506905 -0.0441983 -0.176818 -0.028128 0 0 1.47177 0 0 
246 1 246 0.379363 0.820203 0 0 -0.535076 -0.0455861 -0.186315 -0.0255856 0 0 2.11281 0 0 
247 1 247 0.379343 0.860236 0 0 -0.551536 -0.0410504 -0.190158 -0.0105216 0 0 1.60737 0 0 
248 1 248 0.379325 0.900273 0 0 -0.535705 -0.0199245 -0.17828 -0.0129687 0 0 1.60694 0 0 
249 1 249 0.37931 0.94031 0 0 -0.526849 -0.0111185 -0.172618 0.00375342 0 0 1.3562 0 0 
250 1 250 0.379301 0.980349 0 0 -0.538046 -0.0152846 -0.177544 -0.00141332 0 0 2.76911 0 0 
251 1 251 0.419982 0.0199937 0 0 -0.0588034 -0.108629 -0.0536567 -0.0662586 0 0 -0.290817 0 0 
252 1 252 0.419949 0.0599818 0 0 -0.0813232 -0.104318 -0.0594918 -0.0723127 0 0 -0.402482 0 0 
253 1 253 0.419918 0.0999727 0 0 -0.112805 -0.102291 -0.0689409 -0.0668358 0 0 -0.955892 0 0 
254 1 254 0.419889 0.139965 0 0 -0.138813 -0.101505 -0.0770337 -0.0636169 0 0 -1.00137 0 0 
255 1 255 0.419859 0.179961 0 0 -0.159911 -0.0970601 -0.0823799 -0.0557026 0 0 -0.99899 0 0 
256 1 256 0.41983 0.219958 0 0 -0.189088 -0.102424 -0.0934627 -0.0644332 0 0 -0.47539 0 0 
257 1 257 0.419796 0.259957 0 0 -0.215638 -0.104654 -0.102697 -0.0696968 0 0 0.0768943 0 0 
258 1 258 0.419758 0.299958 0 0 -0.238174 -0.103841 -0.109668 -0.0769995 0 0 0.462896 0 0 
259 1 259 0.419717 0.339961 0 0 -0.256171 -0.0939335 -0.112265 -0.0787361 0 0 0.400578 0 0 
260 1 260 0.419672 0.379967 0 0 -0.267628 -0.0754218 -0.109997 -0.0861848 0 0 0.102581 0 0 
261 1 261 0.419625 0.419977 0 0 -0.288167 -0.0726274 -0.115693 -0.0830846 0 0 -0.0803452 0 0 
262 1 262 0.419576 0.459989 0 0 -0.29896 -0.0505659 -0.112075 -0.0874932 0 0 0.139273 0 0 
263 1 263 0.419524 0.500006 0 0 -0.305147 -0.0410817 -0.111019 -0.0795708 0 0 0.130333 0 0 
264 1 264 0.419475 0.540023 0 0 -0.31156 -0.0266412 -0.108441 -0.0800663 0 0 0.452573 0 0 
265 1 265 0.419431 0.580044 0 0 -0.358047 -0.0330892 -0.125433 -0.0636434 0 0 0.711672 0 0 
266 1 266 0.419386 0.620065 0 0 -0.40333 -0.0379639 -0.141546 -0.065256 0 0 0.903716 0 0 
267 1 267 0.419336 0.660089 0 0 -0.40193 -0.0337332 -0.139736 -0.0484027 0 0 -0.201572 0 0 
268 1 268 0.419295 0.700115 0 0 -0.392231 -0.0112552 -0.129403 -0.052567 0 0 -0.884023 0 0 
269 1 269 0.419267 0.740144 0 0 -0.434706 -0.0266828 -0.147994 -0.0428431 0 0 -0.586529 0 0 
270 1 270 0.419251 0.780173 0 0 -0.474158 -0.030886 -0.162021 -0.0276459 0 0 -0.335402 0 0 
271 1 271 0.419238 0.820207 0 0 -0.48074 -0.0177755 -0.159924 -0.0264063 0 0 0.397673 0 0 
272 1 272 0.419226 0.860242 0 0 -0.48976 -0.00773162 -0.159605 -0.011659 0 0 0.0780225 0 0 
273 1 273 0.419218 0.900279 0 0 -0.522202 -0.00779618 -0.170047 -0.0137564 0 0 0.987763 0 0 
274 1 274 0.419212 0.940318 0 0 -0.532346 -0.00244355 -0.171598 0.00922826 0 0 1.06882 0 0 
275 1 275 0.419205 0.980359 0 0 -0.515592 0.00884835 -0.162575 0.000911735 0 0 2.1811 0 0 
276 1 276 0.459985 0.0199933 0 0 -0.0715665 -0.117841 -0.060706 -0.0735494 0 0 -0.0382116 0 0 
277 1 277 0.45995 0.0599809 0 0 -0.0911389 -0.108799 -0.0640774 -0.0801567 0 0 -0.102241 0 0 
278 1 278 0.459911 0.0999722 0 0 -0.104553 -0.0947041 -0.0638616 -0.0756216 0 0 -0.79053 0 0 
279 1 279 0.459875 0.139966 0 0 -0.133869 -0.0953743 -0.0734826 -0.0712276 0 0 -0.779793 0 0 
280 1 280 0.459842 0.179962 0 0 -0.162412 -0.0898994 -0.0808853 -0.0616851 0 0 -0.698381 0 0 
281 1 281 0.459809 0.21996 0 0 -0.189645 -0.0949175 -0.0912319 -0.0689329 0 0 -0.135241 0 0 
282 1 282 0.459771 0.259961 0 0 -0.212096 -0.0951255 -0.0985021 -0.0716278 0 0 0.320161 0 0 
283 1 283 0.45973 0.299962 0 0 -0.235791 -0.0949399 -0.106046 -0.078192 0 0 0.514554 0 0 
284 1 284 0.459685 0.339966 0 0 -0.261718 -0.0909734 -0.113094 -0.0796979 0 0 0.249822 0 0 
285 1 285 0.459639 0.379972 0 0 -0.287063 -0.0823427 -0.118457 -0.0843302 0 0 0.0652567 0 0 
286 1 286 0.459592 0.419982 0 0 -0.299288 -0.0679956 -0.117775 -0.0790302 0 0 -0.0222107 0 0 
287 1 287 0.459546 0.459995 0 0 -0.307982 -0.0521769 -0.115491 -0.0847557 0 0 0.225543 0 0 
288 1 288 0.459501 0.500011 0 0 -0.34281 -0.0572295 -0.128297 -0.0793859 0 0 0.588953 0 0 
289 1 289 0.459456 0.540029 0 0 -0.3719 -0.0552028 -0.136982 -0.0801694 0 0 0.942365 0 0 
290 1 290 0.459411 0.58005 0 0 -0.372192 -0.0458852 -0.134083 -0.0715937 0 0 0.531318 0 0 
291 1 291 0.459374 0.620073 0 0 -0.378225 -0.0311839 -0.131304 -0.0806353 0 0 0.366113 0 0 
292 1 292 0.459345 0.660099 0 0 -0.446607 -0.0602967 -0.162616 -0.0698967 0 0 0.66966 0 0 
293 1 293 0.459315 0.700125 0 0 -0.506317 -0.0668419 -0.183904 -0.0770559 0 0 1.62743 0 0 
294 1 294 0.459274 0.740154 0 0 -0.516028 -0.0672756 -0.187161 -0.0607135 0 0 1.76937 0 0 
295 1 295 0.459236 0.780183 0 0 -0.508668 -0.0443957 -0.17745 -0.0458173 0 0 1.70875 0 0 
296 1 296 0.459204 0.820216 0 0 -0.539867 -0.042004 -0.186705 -0.0365754 0 0 2.50778 0 0 
297 1 297 0.459179 0.860251 0 0 -0.5566 -0.0312256 -0.188628 -0.0180246 0 0 2.19146 0 0 
298 1 298 0.459156 0.90029 0 0 -0.546578 -0.0126883 -0.17945 -0.0168752 0 0 2.35639 0 0 
299 1 299 0.459139 0.94033 0 0 -0.548211 0.00174671 -0.175347 0.00818166 0 0 1.82823 0 0 
300 1 300 0.459128 0.980372 0 0 -0.583496 -0.0128336 -0.19136 -0.00096 0 0 3.12583 0 0 
301 1 301 0.499978 0.0199933 0 0 -0.06479 -0.115423 -0.0577583 -0.0823638 0 0 -0.0443464 0 0 
302 1 302 0.499937 0.0599812 0 0 -0.0864062 -0.105428 -0.0614799 -0.0869439 0 0 -0.0770149 0 0 
303 1 303 0.499898 0.099973 0 0 -0.110098 -0.0908571 -0.064408 -0.0820327 0 0 -0.416143 0 0 
304 1 304 0.49986 0.139968 0 0 -0.135057 -0.0882165 -0.0715681 -0.0772495 0 0 -0.274344 0 0 
305 1 305 0.499821 0.179966 0 0 -0.156914 -0.0774229 -0.0751191 -0.067344 0 0 -0.324593 0 0 
306 1 306 0.499783 0.219966 0 0 -0.187698 -0.0808185 -0.0860834 -0.0715616 0 0 0.179724 0 0 
307 1 307 0.499742 0.259968 0 0 -0.214229 -0.0854299 -0.0960734 -0.0724426 0 0 0.527827 0 0 
308 1 308 0.499696 0.299971 0 0 -0.242494 -0.0911543 -0.106979 -0.0811545 0 0 0.755538 0 0 
309 1 309 0.499646 0.339977 0 0 -0.268957 -0.0872876 -0.114231 -0.0841048 0 0 0.507103 0 0 
310 1 310 0.499593 0.379984 0 0 -0.293128 -0.0825805 -0.120477 -0.0891024 0 0 0.158361 0 0 
311 1 311 0.499539 0.419996 0 0 -0.317809 -0.0714833 -0.124839 -0.0839171 0 0 -0.226393 0 0 
312 1 312 0.499483 0.46001 0 0 -0.344955 -0.0710972 -0.133436 -0.0917928 0 0 -0.130926 0 0 
313 1 313 0.499424 0.500026 0 0 -0.35002 -0.0621013 -0.132177 -0.0870973 0 0 -0.0682007 0 0 
314 1 314 0.499369 0.540043 0 0 -0.352864 -0.0476539 -0.128447 -0.087731 0 0 0.14817 0 0 
315 1 315 0.499317 0.580063 0 0 -0.408971 -0.0730098 -0.154605 -0.0790799 0 0 0.560576 0 0 
316 1 316 0.499263 0.620082 0 0 -0.445013 -0.0662243 -0.164006 -0.0791318 0 0 0.591617 0 0 
317 1 317 0.499205 0.660105 0 0 -0.431157 -0.0564575 -0.156418 -0.0607078 0 0 -0.483189 0 0 
318 1 318 0.499156 0.700129 0 0 -0.400926 -0.0180508 -0.134376 -0.0649925 0 0 -1.00964 0 0 
319 1 319 0.499121 0.740158 0 0 -0.431884 -0.026628 -0.147071 -0.0460583 0 0 -0.733617 0 0 
320 1 320 0.499099 0.780188 0 0 -0.466179 -0.0185589 -0.1555 -0.0374666 0 0 0.195958 0 0 
321 1 321 0.499078 0.820223 0 0 -0.469283 -0.0035262 -0.151664 -0.0280236 0 0 0.832884 0 0 
322 1 322 0.499061 0.860259 0 0 -0.47486 0.0146534 -0.147624 -0.0144848 0 0 0.817338 0 0 
323 1 323 0.499048 0.9003 0 0 -0.520264 0.00588699 -0.165024 -0.0156627 0 0 1.93123 0 0 
324 1 324 0.499037 0.940341 0 0 -0.540153 0.0126943 -0.169235 0.0104858 0 0 1.69901 0 0 
325 1 325 0.499026 0.980385 0 0 -0.536308 0.0179221 -0.166312 -0.00208879 0 0 2.53726 0 0 
326 1 326 0.53998 0.0199933 0 0 -0.073307 -0.117425 -0.0611316 -0.0911349 0 0 0.073302 0 0 