ITEM: TIMESTEP
0
ITEM: NUMBER OF ATOMS
6875
ITEM: BOX BOUNDS sm sm sm
0 4
0 2
0 0
ITEM: ATOMS id type tag x y z damage s11 s22 s33 s12 s13 s23 vx T ienergy 
1 1 1 0.0199967 0.0199974 0 0 -0.0611446 -0.0593405 -0.0386095 -0.0216321 0 0 -0.368221 0 0 
2 1 2 0.0199928 0.0599942 0 0 -0.107628 -0.056348 -0.052548 -0.0276349 0 0 -0.629893 0 0 
3 1 3 0.0199906 0.0999943 0 0 -0.134193 -0.0593023 -0.0620163 -0.0267173 0 0 -0.517556 0 0 
4 1 4 0.0199906 0.139994 0 0 -0.145583 -0.0717522 -0.069664 -0.0211759 0 0 -0.509245 0 0 
5 1 5 0.0199918 0.179994 0 0 -0.129568 -0.0685313 -0.0634932 -0.0231566 0 0 -0.329578 0 0 
6 1 6 0.019994 0.219991 0 0 -0.109136 -0.0767864 -0.0595869 -0.032503 0 0 -0.420116 0 0 
7 1 7 0.0199949 0.259987 0 0 -0.0880583 -0.0664213 -0.0495028 -0.0540933 0 0 -0.405501 0 0 
8 1 8 0.0199959 0.299983 0 0 -0.0743714 -0.0614717 -0.0435248 -0.0686523 0 0 -0.572081 0 0 
9 1 9 0.019996 0.33998 0 0 -0.0645004 -0.0462462 -0.0354768 -0.0888622 0 0 -0.439769 0 0 
10 1 10 0.0199962 0.379979 0 0 -0.0532375 -0.0239747 -0.0247259 -0.0887418 0 0 -0.510321 0 0 
11 1 11 0.0199965 0.41998 0 0 -0.0398581 -0.00714261 -0.0150428 -0.0880244 0 0 -0.299106 0 0 
12 1 12 0.0199978 0.459983 0 0 -0.0110851 0.0222102 0.00358114 -0.0680041 0 0 -0.200309 0 0 
13 1 13 0.0199995 0.499986 0 0 0.0166894 0.0237916 0.0129842 -0.055985 0 0 -0.124604 0 0 
14 1 14 0.02 0.539989 0 0 0.0408033 0.0414981 0.026377 -0.0441879 0 0 -0.236111 0 0 
15 1 15 0.0199992 0.579992 0 0 0.0555577 0.0429679 0.0315715 -0.030359 0 0 -0.759745 0 0 
16 1 16 0.0199985 0.619996 0 0 0.0658197 0.0569893 0.0393455 -0.0199447 0 0 -0.91265 0 0 
17 1 17 0.0199969 0.66 0 0 0.0597866 0.0555737 0.0369596 -0.000764938 0 0 -1.22611 0 0 
18 1 18 0.0199983 0.700003 0 0 0.0618467 0.044668 0.0341272 0.0170504 0 0 -1.19414 0 0 
19 1 19 0.0199979 0.740007 0 0 0.0455135 0.0468002 0.0295801 0.0193634 0 0 -0.494336 0 0 
20 1 20 0.0199997 0.780008 0 0 0.0433577 0.0138675 0.0183435 0.0477513 0 0 -1.05279 0 0 
21 1 21 0.0200016 0.820009 0 0 0.063367 0.0502335 0.0363982 0.0268458 0 0 0.221741 0 0 
22 1 22 0.0199989 0.86001 0 0 0.00149022 -0.00352946 -0.000642064 0.0445173 0 0 -0.121139 0 0 
23 1 23 0.0200007 0.90001 0 0 0.0270591 0.00334371 0.00975269 0.0476859 0 0 -0.656296 0 0 
24 1 24 0.0199999 0.940009 0 0 -0.00105705 0.0132853 0.00392329 0.0226238 0 0 0.797673 0 0 
25 1 25 0.0199939 0.980012 0 0 -0.0638862 -0.047408 -0.0456393 0.0342213 0 0 -0.489028 0 0 
26 1 26 0.0599923 0.0199935 0 0 -0.0827102 -0.117531 -0.0641835 -0.0377429 0 0 -0.182338 0 0 
27 1 27 0.0599827 0.0599845 0 0 -0.103652 -0.0807351 -0.0590973 -0.0326795 0 0 -0.614036 0 0 
28 1 28 0.0599761 0.0999807 0 0 -0.123557 -0.0720157 -0.0626827 -0.044809 0 0 -1.18074 0 0 
29 1 29 0.0599754 0.139978 0 0 -0.129328 -0.0817094 -0.0676404 -0.0383274 0 0 -1.84846 0 0 
30 1 30 0.0599792 0.179975 0 0 -0.100535 -0.0725701 -0.0554776 -0.0433144 0 0 -1.50352 0 0 
31 1 31 0.0599857 0.219968 0 0 -0.0877102 -0.10571 -0.0619932 -0.0469719 0 0 -1.69699 0 0 
32 1 32 0.0599897 0.259958 0 0 -0.0595337 -0.0865822 -0.0468246 -0.0678359 0 0 -1.05554 0 0 
33 1 33 0.0599924 0.299948 0 0 -0.0505812 -0.0848091 -0.0433848 -0.0673762 0 0 -1.15147 0 0 
34 1 34 0.0599917 0.339941 0 0 -0.0492046 -0.0562765 -0.0337949 -0.0894938 0 0 -0.661602 0 0 
35 1 35 0.0599901 0.379939 0 0 -0.0515414 -0.0138074 -0.020929 -0.0730161 0 0 -0.715964 0 0 
36 1 36 0.0599895 0.419942 0 0 -0.0591627 0.00389536 -0.0176969 -0.0759592 0 0 -0.259424 0 0 
37 1 37 0.0599925 0.459951 0 0 -0.0285109 0.0593523 0.00989195 -0.0448174 0 0 -0.130331 0 0 
38 1 38 0.0599991 0.49996 0 0 -0.0131079 0.0369736 0.00765671 -0.0413974 0 0 0.115633 0 0 
39 1 39 0.0600049 0.539968 0 0 0.0262976 0.0737817 0.0320671 -0.0342163 0 0 0.83612 0 0 
40 1 40 0.0600089 0.579977 0 0 0.0294613 0.0634792 0.0297817 -0.0265374 0 0 1.01655 0 0 
41 1 41 0.0600113 0.619986 0 0 0.0323591 0.0805155 0.0361643 -0.0245834 0 0 2.22607 0 0 
42 1 42 0.0600102 0.659997 0 0 0.0293923 0.0858238 0.0369147 -0.0124406 0 0 2.28627 0 0 
43 1 43 0.0600113 0.700007 0 0 0.0229354 0.0577437 0.0258541 0.00972666 0 0 2.10628 0 0 
44 1 44 0.0600095 0.740015 0 0 0.0513753 0.0835368 0.0432197 -0.00630812 0 0 2.77617 0 0 
45 1 45 0.0600089 0.780021 0 0 0.0186041 0.0127852 0.0100665 0.042388 0 0 1.24132 0 0 
46 1 46 0.0600105 0.820023 0 0 0.0426899 0.057941 0.0322449 0.000930636 0 0 2.61516 0 0 
47 1 47 0.0600031 0.860027 0 0 0.02646 0.0181385 0.0142957 0.024205 0 0 2.00017 0 0 
48 1 48 0.0600048 0.900028 0 0 0.00989232 0.0105083 0.00655184 0.0526938 0 0 0.108584 0 0 
49 1 49 0.0599992 0.940031 0 0 0.00595593 0.0406188 0.0149314 0.00999115 0 0 1.55919 0 0 
50 1 50 0.0599872 0.980035 0 0 -0.00358501 -0.00283563 -0.00205063 0.0496482 0 0 -2.12422 0 0 
51 1 51 0.0999902 0.019992 0 0 -0.0565954 -0.124764 -0.0581392 -0.0409633 0 0 0.0329117 0 0 
52 1 52 0.0999753 0.059978 0 0 -0.0612709 -0.108601 -0.0544482 -0.0331433 0 0 -1.23559 0 0 
53 1 53 0.0999642 0.0999659 0 0 -0.0866207 -0.105009 -0.0614199 -0.0497041 0 0 -2.65793 0 0 
54 1 54 0.0999628 0.139957 0 0 -0.0913143 -0.0975746 -0.0605395 -0.0331735 0 0 -3.51108 0 0 
55 1 55 0.0999703 0.179948 0 0 -0.0787702 -0.0915292 -0.0545799 -0.0418032 0 0 -2.78864 0 0 
56 1 56 0.0999798 0.219938 0 0 -0.0773439 -0.115502 -0.0618099 -0.0424197 0 0 -2.98943 0 0 
57 1 57 0.0999866 0.259925 0 0 -0.0544972 -0.091694 -0.0468501 -0.0606345 0 0 -2.12826 0 0 
58 1 58 0.0999892 0.299916 0 0 -0.0553813 -0.085767 -0.045234 -0.0546674 0 0 -2.2609 0 0 
59 1 59 0.0999866 0.339908 0 0 -0.055133 -0.0536265 -0.0348492 -0.074851 0 0 -1.48919 0 0 
60 1 60 0.0999811 0.379908 0 0 -0.0523006 0.00423845 -0.0153916 -0.0549896 0 0 -1.01893 0 0 
61 1 61 0.0999782 0.419914 0 0 -0.0657899 0.0111288 -0.0175056 -0.0548905 0 0 -0.326297 0 0 
62 1 62 0.0999811 0.459925 0 0 -0.0347241 0.0807657 0.0147578 -0.0227854 0 0 0.163131 0 0 
63 1 63 0.0999905 0.499938 0 0 -0.0344926 0.0474479 0.00415854 -0.0179691 0 0 0.12545 0 0 
64 1 64 0.0999979 0.539951 0 0 0.0132011 0.0957758 0.0349154 -0.0177707 0 0 0.531273 0 0 
65 1 65 0.1 0.579964 0 0 0.020647 0.0843597 0.0336456 -0.0189207 0 0 -0.596679 0 0 
66 1 66 0.0999994 0.619977 0 0 0.0365236 0.107063 0.0459985 -0.0225922 0 0 -0.415857 0 0 
67 1 67 0.0999975 0.659991 0 0 0.0428946 0.104663 0.0472709 -0.015377 0 0 -0.855028 0 0 
68 1 68 0.1 0.700005 0 0 0.045072 0.10054 0.0466467 -0.000629999 0 0 -0.667062 0 0 
69 1 69 0.100003 0.740015 0 0 0.0526111 0.0828169 0.0433844 -0.0153635 0 0 0.587569 0 0 
70 1 70 0.100006 0.780024 0 0 0.0467387 0.0632567 0.0352404 0.0109438 0 0 0.727563 0 0 
71 1 71 0.100008 0.82003 0 0 0.0280138 0.0568383 0.02719 -0.0142792 0 0 2.1763 0 0 
72 1 72 0.100003 0.860036 0 0 0.0195259 0.0337927 0.0170865 0.00449497 0 0 1.9187 0 0 
73 1 73 0.100002 0.900042 0 0 -0.00316143 0.0576395 0.017464 0.0188019 0 0 0.786176 0 0 
74 1 74 0.0999949 0.940051 0 0 -0.0104995 0.035757 0.00810731 -0.0054029 0 0 1.10996 0 0 
75 1 75 0.099989 0.980053 0 0 0.0279216 0.00478044 0.0104907 0.0429938 0 0 -2.26545 0 0 
76 1 76 0.139992 0.0199914 0 0 -0.0446014 -0.12727 -0.055094 -0.0362654 0 0 0.0980823 0 0 
77 1 77 0.139978 0.0599731 0 0 -0.0414797 -0.139796 -0.0581046 -0.0383512 0 0 -1.23456 0 0 
78 1 78 0.139964 0.0999552 0 0 -0.0437605 -0.123888 -0.0537364 -0.0421423 0 0 -2.86041 0 0 
79 1 79 0.139961 0.13994 0 0 -0.0508958 -0.113179 -0.052588 -0.0144408 0 0 -4.24271 0 0 
80 1 80 0.139968 0.179926 0 0 -0.050911 -0.103037 -0.0493399 -0.0124233 0 0 -3.93606 0 0 
81 1 81 0.139978 0.219914 0 0 -0.0498829 -0.100209 -0.0481018 -0.00949352 0 0 -3.7823 0 0 
82 1 82 0.139986 0.259903 0 0 -0.039809 -0.0754131 -0.0369219 -0.0224076 0 0 -2.73622 0 0 
83 1 83 0.139987 0.299895 0 0 -0.0502273 -0.065707 -0.0371503 -0.0258197 0 0 -2.47094 0 0 
84 1 84 0.139982 0.339891 0 0 -0.0555999 -0.0347072 -0.0289332 -0.0387843 0 0 -1.63343 0 0 
85 1 85 0.139973 0.379893 0 0 -0.0580908 0.00818761 -0.0159804 -0.0315964 0 0 -0.620416 0 0 
86 1 86 0.139967 0.4199 0 0 -0.0720131 0.0145956 -0.0183873 -0.0205575 0 0 0.0957446 0 0 
87 1 87 0.13997 0.459911 0 0 -0.0438513 0.0697822 0.00831716 0.00292517 0 0 0.756369 0 0 
88 1 88 0.139981 0.499925 0 0 -0.0494807 0.060757 0.00362105 0.00964989 0 0 0.753339 0 0 
89 1 89 0.139994 0.53994 0 0 -0.0215693 0.0919725 0.0225625 0.00730421 0 0 1.11956 0 0 
90 1 90 0.140001 0.579955 0 0 -0.025919 0.0751414 0.0157781 -0.00659652 0 0 1.12761 0 0 
91 1 91 0.140004 0.619971 0 0 -0.0143092 0.0961263 0.0262169 -0.0109718 0 0 1.83509 0 0 
92 1 92 0.140004 0.659985 0 0 -0.0178399 0.0651316 0.0151595 -0.00788996 0 0 1.99721 0 0 
93 1 93 0.140007 0.699998 0 0 -0.00213082 0.0885683 0.0276964 -0.00433667 0 0 2.00371 0 0 
94 1 94 0.14001 0.740009 0 0 -0.00278376 0.0463455 0.0139639 -0.0116403 0 0 2.21369 0 0 
95 1 95 0.140012 0.780018 0 0 0.0105586 0.0608676 0.0228879 -0.0112436 0 0 2.66529 0 0 
96 1 96 0.14001 0.820027 0 0 0.00939196 0.0635605 0.0233788 -0.0347619 0 0 3.74397 0 0 
97 1 97 0.140003 0.860035 0 0 -0.0103434 0.0284148 0.00579931 -0.0220416 0 0 3.07546 0 0 
98 1 98 0.139997 0.900043 0 0 -0.0172443 0.0697381 0.0168274 -0.0362351 0 0 2.03402 0 0 
99 1 99 0.13999 0.940053 0 0 -0.0161038 0.0258899 0.00314269 -0.0269877 0 0 0.575068 0 0 
100 1 100 0.139995 0.980054 0 0 0.0504685 0.0190578 0.0222834 0.00599577 0 0 -1.34789 0 0 
101 1 101 0.179995 0.019991 0 0 -0.0347768 -0.128271 -0.0522543 -0.0200196 0 0 -0.3606 0 0 
102 1 102 0.179982 0.0599711 0 0 -0.012505 -0.140155 -0.0489244 -0.0310785 0 0 -1.97114 0 0 
103 1 103 0.179968 0.0999508 0 0 -0.00749784 -0.123224 -0.0418962 -0.0304295 0 0 -3.74104 0 0 
104 1 104 0.179962 0.139932 0 0 -0.0247087 -0.121239 -0.0467784 -0.00231857 0 0 -4.91466 0 0 
105 1 105 0.179968 0.179917 0 0 -0.0296644 -0.095734 -0.0401892 0.0138024 0 0 -4.76408 0 0 
106 1 106 0.179978 0.219905 0 0 -0.038027 -0.0876748 -0.0402829 0.0154813 0 0 -4.45345 0 0 
107 1 107 0.179984 0.259896 0 0 -0.0369535 -0.0563274 -0.0298882 0.00661667 0 0 -3.6357 0 0 
108 1 108 0.179983 0.29989 0 0 -0.0503333 -0.0510024 -0.0324698 -0.00554204 0 0 -3.10755 0 0 
109 1 109 0.179974 0.339889 0 0 -0.0519473 -0.0124745 -0.0206357 -0.0148073 0 0 -2.15858 0 0 
110 1 110 0.179963 0.379892 0 0 -0.0563323 -0.00131903 -0.0184624 -0.0134077 0 0 -0.909173 0 0 
111 1 111 0.179954 0.419898 0 0 -0.056453 0.023199 -0.0106418 -0.00185725 0 0 0.098431 0 0 
112 1 112 0.179957 0.459908 0 0 -0.0567151 0.0392581 -0.0055816 0.0228028 0 0 0.456507 0 0 
113 1 113 0.179967 0.49992 0 0 -0.0587134 0.0593124 0.000202008 0.0176799 0 0 0.745177 0 0 
114 1 114 0.179977 0.539936 0 0 -0.0487345 0.0837772 0.0112366 0.0235103 0 0 -0.258728 0 0 
115 1 115 0.179984 0.579951 0 0 -0.031554 0.0711295 0.0126861 -0.00166306 0 0 -0.912604 0 0 
116 1 116 0.179985 0.619966 0 0 0.00751129 0.104806 0.0359804 -0.00240617 0 0 -1.49687 0 0 
117 1 117 0.179988 0.659979 0 0 0.0153998 0.0668191 0.0263429 -0.00585813 0 0 -1.78133 0 0 
118 1 118 0.179992 0.69999 0 0 0.0344129 0.0920006 0.0404954 -0.00748626 0 0 -1.03977 0 0 
119 1 119 0.18 0.74 0 0 0.026178 0.0518692 0.0250097 -0.00735583 0 0 -0.41212 0 0 
120 1 120 0.180005 0.780007 0 0 0.0217277 0.0580067 0.0255505 -0.0293402 0 0 1.59104 0 0 
121 1 121 0.180003 0.820014 0 0 0.00275056 0.0460925 0.015658 -0.0457222 0 0 2.42342 0 0 
122 1 122 0.179997 0.860021 0 0 -0.00421317 0.0367538 0.010436 -0.0556042 0 0 2.54281 0 0 
123 1 123 0.179988 0.900028 0 0 -0.0254606 0.0469847 0.00690519 -0.0738731 0 0 2.1456 0 0 
124 1 124 0.179984 0.940036 0 0 -0.0333779 0.00965234 -0.00760054 -0.0350519 0 0 0.151852 0 0 
125 1 125 0.179998 0.980038 0 0 -0.0131834 0.00443758 -0.00279661 -0.00508857 0 0 0.0563392 0 0 
126 1 126 0.22 0.0199918 0 0 -0.0258915 -0.112608 -0.0443843 0.00156056 0 0 -0.171766 0 0 
127 1 127 0.219993 0.0599738 0 0 -0.00387884 -0.130867 -0.0431767 -0.019814 0 0 -1.43232 0 0 
128 1 128 0.219978 0.0999525 0 0 0.000760363 -0.128396 -0.0409012 -0.0194678 0 0 -3.10359 0 0 
129 1 129 0.219971 0.139934 0 0 0.004475 -0.104626 -0.0320945 0.00867017 0 0 -4.28007 0 0 
130 1 130 0.219973 0.179918 0 0 -0.00756211 -0.085118 -0.0297006 0.02817 0 0 -4.91036 0 0 
131 1 131 0.21998 0.219908 0 0 -0.0191064 -0.0600598 -0.0253656 0.0315611 0 0 -4.96039 0 0 
132 1 132 0.219983 0.259901 0 0 -0.0347582 -0.042823 -0.0248554 0.0237211 0 0 -4.27052 0 0 
133 1 133 0.219979 0.299899 0 0 -0.0451612 -0.026971 -0.023108 0.0139164 0 0 -3.73367 0 0 
134 1 134 0.219968 0.339899 0 0 -0.0498428 -0.00945564 -0.0189946 0.0012227 0 0 -2.61287 0 0 
135 1 135 0.219955 0.379902 0 0 -0.0519449 -0.00774588 -0.0191185 0.00789641 0 0 -1.37551 0 0 
136 1 136 0.219946 0.419906 0 0 -0.0454488 0.00677312 -0.0123827 0.00810507 0 0 0.0768276 0 0 
137 1 137 0.219946 0.459912 0 0 -0.0591234 0.0170669 -0.0134676 0.0315763 0 0 0.412747 0 0 
138 1 138 0.219955 0.499921 0 0 -0.0699167 0.0340113 -0.0114969 0.0213057 0 0 1.00758 0 0 
139 1 139 0.219966 0.539934 0 0 -0.0735121 0.0658547 -0.00244609 0.0295837 0 0 0.475987 0 0 
140 1 140 0.219977 0.579949 0 0 -0.0926494 0.0378133 -0.0175672 0.00668243 0 0 0.65644 0 0 
141 1 141 0.219984 0.619962 0 0 -0.0767837 0.0480242 -0.00921349 0.00539413 0 0 0.775041 0 0 
142 1 142 0.219991 0.659973 0 0 -0.0775606 0.00830146 -0.0221906 0.000849278 0 0 0.789169 0 0 
143 1 143 0.219997 0.69998 0 0 -0.052262 0.0266008 -0.00821556 -0.012643 0 0 1.47382 0 0 
144 1 144 0.220004 0.739987 0 0 -0.0438459 0.00702225 -0.0117907 -0.0040517 0 0 1.09725 0 0 
145 1 145 0.220007 0.779992 0 0 -0.0231673 0.0256639 0.000810938 -0.0452832 0 0 2.95489 0 0 
146 1 146 0.220002 0.819996 0 0 -0.0300439 -0.00112607 -0.00997566 -0.045664 0 0 2.64596 0 0 
147 1 147 0.219995 0.86 0 0 -0.0271338 0.017423 -0.00310283 -0.0705365 0 0 2.63556 0 0 
148 1 148 0.219981 0.900005 0 0 -0.0445389 0.0155903 -0.00926741 -0.0912388 0 0 2.34824 0 0 
149 1 149 0.219977 0.94001 0 0 -0.0557948 -0.00439388 -0.0192867 -0.0354059 0 0 0.277371 0 0 
150 1 150 0.21999 0.980015 0 0 -0.079325 0.0135641 -0.0210685 -0.0236868 0 0 1.43382 0 0 
151 1 151 0.260003 0.0199932 0 0 -0.0209916 -0.0923654 -0.0363265 0.0170996 0 0 -0.465529 0 0 
152 1 152 0.260001 0.0599782 0 0 0.00678735 -0.10499 -0.031461 -0.0145922 0 0 -1.79649 0 0 
153 1 153 0.259987 0.0999593 0 0 0.0130613 -0.1187 -0.0338469 -0.0121359 0 0 -2.91507 0 0 
154 1 154 0.259979 0.139942 0 0 0.0221641 -0.0794981 -0.0183659 0.0128945 0 0 -3.90407 0 0 
155 1 155 0.259977 0.179928 0 0 -0.00943194 -0.0872505 -0.0309796 0.0302298 0 0 -5.04148 0 0 
156 1 156 0.25998 0.219919 0 0 -0.0106443 -0.0283206 -0.0124788 0.0373486 0 0 -5.48528 0 0 
157 1 157 0.259979 0.259916 0 0 -0.0343286 -0.0336329 -0.0217697 0.0293623 0 0 -5.04452 0 0 
158 1 158 0.259973 0.299916 0 0 -0.0328446 -0.00184614 -0.0111065 0.0221129 0 0 -4.61202 0 0 
159 1 159 0.259961 0.339917 0 0 -0.0396615 -0.0125295 -0.0167155 0.00784729 0 0 -3.39178 0 0 
160 1 160 0.259948 0.379918 0 0 -0.0386387 -0.020613 -0.0189786 0.0156806 0 0 -2.16922 0 0 
161 1 161 0.259939 0.419917 0 0 -0.0362129 -0.016203 -0.0167888 0.00779803 0 0 -0.741952 0 0 
162 1 162 0.259936 0.459918 0 0 -0.0567676 -0.0179969 -0.0239552 0.0214113 0 0 -0.168684 0 0 
163 1 163 0.259939 0.499923 0 0 -0.0760285 0.0168958 -0.0189455 0.010219 0 0 0.154654 0 0 
164 1 164 0.259945 0.539933 0 0 -0.0905178 0.0306341 -0.0191856 0.0222805 0 0 -0.981144 0 0 
165 1 165 0.259953 0.579946 0 0 -0.0748535 0.0438115 -0.00994274 0.00669853 0 0 -1.55729 0 0 
166 1 166 0.25996 0.619957 0 0 -0.0389637 0.0458949 0.0022236 0.00988309 0 0 -2.4933 0 0 
167 1 167 0.259971 0.659966 0 0 -0.0114944 0.0285122 0.00545753 0.00834425 0 0 -2.58904 0 0 
168 1 168 0.259981 0.69997 0 0 0.00385454 0.0275739 0.0100771 -0.00790023 0 0 -1.29029 0 0 
169 1 169 0.259991 0.739973 0 0 -0.00706801 0.00787539 0.000267785 0.00183981 0 0 -1.08822 0 0 
170 1 170 0.259998 0.779976 0 0 -0.00227683 0.0293452 0.00868237 -0.0427597 0 0 1.34626 0 0 
171 1 171 0.259995 0.819979 0 0 -0.0214546 -0.0159065 -0.0119602 -0.0340016 0 0 0.934103 0 0 
172 1 172 0.259988 0.85998 0 0 -0.0253944 0.0131917 -0.00390201 -0.0682564 0 0 1.61865 0 0 
173 1 173 0.259971 0.899983 0 0 -0.0669414 -0.0181035 -0.0272461 -0.0739968 0 0 1.56439 0 0 
174 1 174 0.259965 0.939987 0 0 -0.096821 -0.0130159 -0.035202 -0.0219436 0 0 0.274381 0 0 
175 1 175 0.259971 0.979995 0 0 -0.155512 0.00326085 -0.0487952 -0.0283665 0 0 2.45252 0 0 
176 1 176 0.300006 0.0199946 0 0 -0.0349372 -0.0842693 -0.0382028 0.0267039 0 0 -0.322614 0 0 
177 1 177 0.300009 0.0599829 0 0 -0.0148603 -0.0844288 -0.0318137 -0.0047537 0 0 -1.07698 0 0 
178 1 178 0.299999 0.0999686 0 0 0.000677139 -0.103117 -0.0328225 -0.00477736 0 0 -1.66801 0 0 
179 1 179 0.299989 0.139953 0 0 0.0198668 -0.0671766 -0.0151512 0.0115989 0 0 -2.84717 0 0 
180 1 180 0.299983 0.179942 0 0 -0.00453491 -0.07034 -0.0239865 0.026094 0 0 -4.67564 0 0 
181 1 181 0.29998 0.219935 0 0 -0.0101133 -0.0157702 -0.00828345 0.0345519 0 0 -5.75902 0 0 
182 1 182 0.299976 0.259935 0 0 -0.0349321 -0.0183532 -0.0170634 0.0265506 0 0 -5.75651 0 0 
183 1 183 0.299968 0.299935 0 0 -0.039723 -0.00997999 -0.0159153 0.0201603 0 0 -5.40664 0 0 
184 1 184 0.299956 0.339936 0 0 -0.0311846 -0.0103802 -0.0133068 0.00746147 0 0 -4.18446 0 0 
185 1 185 0.299945 0.379934 0 0 -0.0352257 -0.0539242 -0.0285588 0.0152533 0 0 -3.00321 0 0 
186 1 186 0.299937 0.419928 0 0 -0.0204941 -0.0298789 -0.0161333 0.0011608 0 0 -1.34782 0 0 
187 1 187 0.299931 0.459925 0 0 -0.0526971 -0.0539689 -0.0341826 0.00920947 0 0 -0.433113 0 0 
188 1 188 0.299929 0.499924 0 0 -0.0677004 -0.00477526 -0.023225 -0.00543843 0 0 0.25736 0 0 
189 1 189 0.299931 0.539931 0 0 -0.110289 -0.00029897 -0.0354401 0.00868479 0 0 -0.14117 0 0 
190 1 190 0.299942 0.579941 0 0 -0.133707 0.000594636 -0.042659 0.00752962 0 0 0.137863 0 0 
191 1 191 0.299956 0.61995 0 0 -0.129278 -0.00522337 -0.0431036 0.0150117 0 0 0.277963 0 0 
192 1 192 0.299972 0.659957 0 0 -0.126856 -0.030887 -0.0505536 0.0124315 0 0 0.677849 0 0 
193 1 193 0.299983 0.699961 0 0 -0.100254 -0.020506 -0.0386941 0.0024173 0 0 1.53685 0 0 
194 1 194 0.299993 0.739964 0 0 -0.0916089 -0.0420944 -0.0428442 0.0172238 0 0 1.09613 0 0 
195 1 195 0.299997 0.779966 0 0 -0.0627785 0.00283936 -0.0191983 -0.0223099 0 0 2.24188 0 0 
196 1 196 0.299992 0.819969 0 0 -0.0741706 -0.0383692 -0.0360576 -0.00632492 0 0 0.632618 0 0 
197 1 197 0.299983 0.859971 0 0 -0.0581291 0.00648168 -0.0165418 -0.0475461 0 0 1.34826 0 0 
198 1 198 0.299961 0.899975 0 0 -0.0879328 -0.0322559 -0.038511 -0.0409518 0 0 1.26162 0 0 
199 1 199 0.299949 0.939979 0 0 -0.121359 -0.0073175 -0.0412399 -0.0029044 0 0 0.737859 0 0 
200 1 200 0.299941 0.979991 0 0 -0.213739 -0.00728406 -0.070849 -0.0149458 0 0 2.55916 0 0 
201 1 201 0.340006 0.0199958 0 0 -0.0306458 -0.0674229 -0.0314264 0.0285269 0 0 -0.462535 0 0 
202 1 202 0.34001 0.0599877 0 0 -0.00900955 -0.0505434 -0.0190786 0.00402311 0 0 -1.27528 0 0 
203 1 203 0.340004 0.0999782 0 0 -0.000344773 -0.0763814 -0.024582 -0.000270785 0 0 -1.58972 0 0 
204 1 204 0.339995 0.139966 0 0 0.010549 -0.0604303 -0.0159769 0.00630629 0 0 -2.52748 0 0 
205 1 205 0.339986 0.179957 0 0 -0.00400774 -0.0506981 -0.0175236 0.0131295 0 0 -4.46956 0 0 
206 1 206 0.339979 0.219952 0 0 -0.0163059 -0.0199846 -0.0116186 0.0199721 0 0 -6.09776 0 0 
207 1 207 0.339972 0.259951 0 0 -0.0277593 -0.0103213 -0.0121907 0.0125159 0 0 -6.58722 0 0 
208 1 208 0.339963 0.299952 0 0 -0.0315597 -0.0189293 -0.0161657 0.00826224 0 0 -6.31546 0 0 
209 1 209 0.339953 0.33995 0 0 -0.0173659 -0.0219212 -0.0125751 -0.00250915 0 0 -5.17769 0 0 
210 1 210 0.339944 0.379945 0 0 -0.0228252 -0.0674237 -0.0289088 0.00113136 0 0 -3.92801 0 0 
211 1 211 0.339937 0.419935 0 0 -0.0160923 -0.0581289 -0.0237734 -0.0156996 0 0 -2.16243 0 0 
212 1 212 0.339927 0.459928 0 0 -0.0465108 -0.0671455 -0.0364201 -0.0196661 0 0 -1.13909 0 0 
213 1 213 0.339917 0.499924 0 0 -0.0825212 -0.0466394 -0.0413937 -0.0286428 0 0 -0.880248 0 0 
214 1 214 0.339911 0.539926 0 0 -0.097312 -0.0140484 -0.0356856 -0.0112281 0 0 -1.2435 0 0 
215 1 215 0.339916 0.579933 0 0 -0.0985547 0.00816745 -0.0289614 -0.00117567 0 0 -1.62363 0 0 
216 1 216 0.339928 0.619941 0 0 -0.0824609 0.0104246 -0.0230794 0.0208464 0 0 -2.66614 0 0 
217 1 217 0.339946 0.659948 0 0 -0.0562112 0.0147645 -0.0132732 0.018352 0 0 -2.07501 0 0 
218 1 218 0.339961 0.699955 0 0 -0.0452087 0.0223392 -0.00731911 0.0133528 0 0 -0.953352 0 0 
219 1 219 0.339974 0.739961 0 0 -0.056112 0.00241204 -0.0171993 0.0304308 0 0 -0.693685 0 0 
220 1 220 0.339981 0.779967 0 0 -0.0526684 0.0192143 -0.0107114 0.00299719 0 0 0.576065 0 0 
221 1 221 0.339978 0.819972 0 0 -0.0769377 -0.0126966 -0.0287151 0.02349 0 0 -1.0379 0 0 
222 1 222 0.339968 0.859978 0 0 -0.0798448 0.0161367 -0.0204082 -0.0169619 0 0 -0.00909018 0 0 
223 1 223 0.339946 0.899985 0 0 -0.117369 -0.0375761 -0.049656 -0.00222236 0 0 0.0381684 0 0 
224 1 224 0.339927 0.939991 0 0 -0.144646 0.00392003 -0.0451 0.00696998 0 0 0.797907 0 0 
225 1 225 0.339905 0.980005 0 0 -0.235426 -0.0124766 -0.0794698 -0.008951 0 0 2.20421 0 0 
226 1 226 0.380005 0.0199969 0 0 -0.0445138 -0.0606249 -0.0336908 0.0232715 0 0 -0.307407 0 0 
227 1 227 0.380011 0.0599919 0 0 -0.0411991 -0.0395174 -0.0258603 0.00935943 0 0 -0.820392 0 0 
228 1 228 0.380009 0.0999859 0 0 -0.0302951 -0.0720655 -0.0327993 0.00248645 0 0 -0.930613 0 0 
229 1 229 0.380002 0.139977 0 0 -0.0007029 -0.0528463 -0.0171534 -0.00268358 0 0 -1.93299 0 0 
230 1 230 0.37999 0.179969 0 0 -0.00844181 -0.0503623 -0.0188392 -0.00801729 0 0 -4.18606 0 0 
231 1 231 0.379978 0.219964 0 0 -0.0181725 -0.0226447 -0.0130732 -0.00357557 0 0 -6.21677 0 0 
232 1 232 0.379969 0.259962 0 0 -0.0287784 -0.0261104 -0.0175809 -0.0057788 0 0 -7.07605 0 0 
233 1 233 0.379961 0.29996 0 0 -0.0239174 -0.0262323 -0.0160599 -0.0102182 0 0 -6.74955 0 0 
234 1 234 0.379953 0.339955 0 0 -0.0198883 -0.052015 -0.0230308 -0.0138445 0 0 -5.82144 0 0 
235 1 235 0.379948 0.379946 0 0 -0.0127146 -0.0716349 -0.0270185 -0.0153275 0 0 -4.44532 0 0 
236 1 236 0.37994 0.419935 0 0 -0.0206826 -0.0783049 -0.0317117 -0.0335799 0 0 -2.65157 0 0 
237 1 237 0.379926 0.459925 0 0 -0.0474965 -0.0845897 -0.0423266 -0.0438358 0 0 -1.48953 0 0 
238 1 238 0.37991 0.499919 0 0 -0.0744536 -0.0480837 -0.0392669 -0.0525959 0 0 -0.696928 0 0 
239 1 239 0.3799 0.539919 0 0 -0.130059 -0.0534808 -0.0588267 -0.0205913 0 0 -0.633919 0 0 
240 1 240 0.379903 0.579923 0 0 -0.152457 -0.0167075 -0.0542168 -0.00496857 0 0 0.286187 0 0 
241 1 241 0.379917 0.619933 0 0 -0.194228 -0.0322766 -0.07261 0.0269834 0 0 0.413915 0 0 
242 1 242 0.379937 0.659943 0 0 -0.205135 -0.0280339 -0.0747454 0.035636 0 0 1.29648 0 0 
243 1 243 0.379953 0.699954 0 0 -0.18401 -0.0155419 -0.0639617 0.0345556 0 0 2.23802 0 0 
244 1 244 0.379965 0.739965 0 0 -0.176808 -0.0149258 -0.0614541 0.0470145 0 0 1.7181 0 0 
245 1 245 0.379969 0.779978 0 0 -0.154566 0.0108564 -0.0460539 0.0263171 0 0 1.55704 0 0 
246 1 246 0.379965 0.81999 0 0 -0.150129 -0.00662194 -0.0502339 0.0490079 0 0 -0.675267 0 0 
247 1 247 0.379952 0.860001 0 0 -0.129776 0.0221215 -0.0344961 0.0116433 0 0 -0.162843 0 0 
248 1 248 0.379928 0.900012 0 0 -0.145206 -0.0302861 -0.0562465 0.0312564 0 0 -0.496366 0 0 
249 1 249 0.379903 0.940021 0 0 -0.157937 0.0105915 -0.0472212 0.0153957 0 0 0.710922 0 0 
250 1 250 0.379869 0.980036 0 0 -0.229855 -0.0170546 -0.0791503 0.00101834 0 0 1.16061 0 0 
251 1 251 0.420002 0.019998 0 0 -0.0349235 -0.0443299 -0.0253926 0.0128621 0 0 -0.606806 0 0 
252 1 252 0.420006 0.0599946 0 0 -0.0267733 -0.0205698 -0.015162 0.012379 0 0 -1.27573 0 0 
253 1 253 0.420008 0.0999908 0 0 -0.0180197 -0.0547732 -0.02332 0.00593999 0 0 -1.17419 0 0 
254 1 254 0.420004 0.139983 0 0 -0.00191606 -0.0507242 -0.016862 -0.0117976 0 0 -2.09177 0 0 
255 1 255 0.419991 0.179974 0 0 -0.0180622 -0.0625983 -0.0258448 -0.0294172 0 0 -4.23211 0 0 
256 1 256 0.419977 0.219968 0 0 -0.0204031 -0.0368929 -0.0183555 -0.0257089 0 0 -6.22273 0 0 
257 1 257 0.419966 0.259963 0 0 -0.028095 -0.0440955 -0.0231278 -0.0257314 0 0 -7.54394 0 0 
258 1 258 0.419959 0.299958 0 0 -0.0246035 -0.0471291 -0.0229795 -0.0285323 0 0 -7.35264 0 0 
259 1 259 0.419954 0.339951 0 0 -0.0182685 -0.0631469 -0.0260816 -0.0266473 0 0 -6.39821 0 0 
260 1 260 0.41995 0.379941 0 0 -0.0202008 -0.0825743 -0.0329271 -0.0288382 0 0 -5.16089 0 0 
261 1 261 0.419941 0.419929 0 0 -0.0239695 -0.0749537 -0.0316934 -0.0492683 0 0 -3.41666 0 0 
262 1 262 0.419923 0.45992 0 0 -0.0563777 -0.0901333 -0.0469528 -0.0569026 0 0 -2.48004 0 0 
263 1 263 0.4199 0.499913 0 0 -0.0683434 -0.0461348 -0.0366834 -0.065322 0 0 -1.69305 0 0 
264 1 264 0.41988 0.539913 0 0 -0.106927 -0.0427386 -0.0479634 -0.0354095 0 0 -1.76009 0 0 
265 1 265 0.419875 0.579917 0 0 -0.11934 -0.00505603 -0.0398599 -0.00307688 0 0 -1.88463 0 0 
266 1 266 0.419883 0.619928 0 0 -0.103272 0.0364645 -0.0214029 0.0287922 0 0 -1.90293 0 0 
267 1 267 0.419899 0.659943 0 0 -0.111793 0.0494088 -0.019984 0.0415975 0 0 -1.16821 0 0 
268 1 268 0.419916 0.69996 0 0 -0.117848 0.0583089 -0.0190714 0.0506626 0 0 -0.45893 0 0 
269 1 269 0.419931 0.739979 0 0 -0.12752 0.0510603 -0.0244948 0.0595958 0 0 -0.0700857 0 0 
270 1 270 0.419937 0.779997 0 0 -0.137339 0.0599487 -0.0247937 0.046412 0 0 -0.281237 0 0 
271 1 271 0.419935 0.820017 0 0 -0.15102 0.0444207 -0.0341557 0.0610039 0 0 -2.2098 0 0 
272 1 272 0.419925 0.860035 0 0 -0.150036 0.040146 -0.035214 0.0301902 0 0 -1.50119 0 0 
273 1 273 0.419904 0.90005 0 0 -0.158335 -0.00325316 -0.0517897 0.0484318 0 0 -1.46327 0 0 
274 1 274 0.419876 0.940063 0 0 -0.161745 0.0196182 -0.0455497 0.012593 0 0 0.512133 0 0 
275 1 275 0.419834 0.980077 0 0 -0.212924 -0.0232663 -0.0757131 0.0061224 0 0 0.248674 0 0 
276 1 276 0.46 0.0199989 0 0 -0.0352261 -0.0356643 -0.0227138 0.0011242 0 0 -0.610391 0 0 
277 1 277 0.460004 0.0599954 0 0 -0.0468796 -0.0354554 -0.0263769 0.0141778 0 0 -1.22443 0 0 
278 1 278 0.46001 0.0999918 0 0 -0.0334995 -0.0545018 -0.0281944 0.00786341 0 0 -1.16203 0 0 
279 1 279 0.460008 0.139984 0 0 -0.018765 -0.0661444 -0.0272041 -0.0199166 0 0 -2.18024 0 0 
280 1 280 0.459994 0.179974 0 0 -0.0200101 -0.069124 -0.0285585 -0.0437776 0 0 -3.91112 0 0 
281 1 281 0.459978 0.219966 0 0 -0.024895 -0.0604245 -0.0273345 -0.0361162 0 0 -5.68751 0 0 
282 1 282 0.459966 0.259958 0 0 -0.0326826 -0.0630454 -0.0306703 -0.0334662 0 0 -7.33791 0 0 
283 1 283 0.45996 0.29995 0 0 -0.0304436 -0.0654195 -0.0307134 -0.0284708 0 0 -7.2351 0 0 
284 1 284 0.459957 0.339941 0 0 -0.0211322 -0.0702652 -0.0292823 -0.0227874 0 0 -6.46206 0 0 
285 1 285 0.459953 0.379931 0 0 -0.0276503 -0.074131 -0.0326103 -0.0311172 0 0 -5.38944 0 0 
286 1 286 0.459942 0.419922 0 0 -0.0398869 -0.0698678 -0.0351666 -0.0450698 0 0 -3.83047 0 0 
287 1 287 0.459921 0.459915 0 0 -0.0547417 -0.0626624 -0.0376231 -0.0582683 0 0 -2.73607 0 0 
288 1 288 0.459893 0.499911 0 0 -0.0802832 -0.0535054 -0.0428773 -0.058629 0 0 -2.02481 0 0 
289 1 289 0.45987 0.539911 0 0 -0.105344 -0.0346402 -0.0448599 -0.0329457 0 0 -1.16473 0 0 
290 1 290 0.459861 0.579917 0 0 -0.15741 -0.0137769 -0.0548624 0.000123469 0 0 -0.0073778 0 0 
291 1 291 0.459866 0.61993 0 0 -0.221278 -0.00200918 -0.0715745 0.0406338 0 0 0.575346 0 0 
292 1 292 0.45988 0.659949 0 0 -0.245225 0.0207595 -0.071952 0.0512539 0 0 2.08603 0 0 
293 1 293 0.459894 0.699972 0 0 -0.248262 0.0339847 -0.0686844 0.0652633 0 0 2.43096 0 0 
294 1 294 0.459906 0.739997 0 0 -0.238555 0.0474561 -0.0612506 0.0655249 0 0 2.05079 0 0 
295 1 295 0.459909 0.780023 0 0 -0.225853 0.0512166 -0.0559728 0.0549754 0 0 1.03746 0 0 
296 1 296 0.459906 0.820049 0 0 -0.214669 0.0560198 -0.0508442 0.0662731 0 0 -1.21363 0 0 
297 1 297 0.459896 0.860072 0 0 -0.197944 0.0476726 -0.0481603 0.0400633 0 0 -1.17295 0 0 
298 1 298 0.459877 0.900092 0 0 -0.181901 0.0180068 -0.0525292 0.0570534 0 0 -1.67955 0 0 
299 1 299 0.459849 0.940109 0 0 -0.15986 0.033826 -0.0403923 0.00764517 0 0 0.0208372 0 0 
300 1 300 0.459804 0.980124 0 0 -0.175794 -0.0177819 -0.0620457 0.00660964 0 0 -0.952643 0 0 
301 1 301 0.499998 0.019999 0 0 -0.0143552 -0.023782 -0.0122175 -0.00772957 0 0 -0.948189 0 0 
302 1 302 0.5 0.0599945 0 0 -0.0220692 -0.0392584 -0.0196445 0.0134513 0 0 -1.92664 0 0 
303 1 303 0.500008 0.0999894 0 0 -0.0174635 -0.0478008 -0.0209072 0.00907978 0 0 -1.89253 0 0 
304 1 304 0.500009 0.139982 0 0 -0.0216845 -0.0712262 -0.0297681 -0.024332 0 0 -2.69646 0 0 
305 1 305 0.499995 0.179971 0 0 -0.0227424 -0.0758362 -0.0315843 -0.0504915 0 0 -3.89209 0 0 
306 1 306 0.499978 0.219961 0 0 -0.0270215 -0.0747056 -0.032592 -0.0436211 0 0 -5.39229 0 0 
307 1 307 0.499966 0.259951 0 0 -0.0333301 -0.0773138 -0.0354495 -0.0352361 0 0 -7.17742 0 0 
308 1 308 0.499959 0.299942 0 0 -0.0287167 -0.0664832 -0.0304991 -0.0257043 0 0 -7.14433 0 0 
309 1 309 0.499957 0.339933 0 0 -0.0392434 -0.079401 -0.0380158 -0.0168452 0 0 -6.72822 0 0 
310 1 310 0.499952 0.379925 0 0 -0.037814 -0.0552684 -0.0298204 -0.0290979 0 0 -5.74137 0 0 
311 1 311 0.499939 0.41992 0 0 -0.0472275 -0.0503881 -0.0312742 -0.0383114 0 0 -4.68495 0 0 
312 1 312 0.499915 0.459916 0 0 -0.0479307 -0.0326721 -0.0258259 -0.0540389 0 0 -3.89827 0 0 
313 1 313 0.499884 0.499916 0 0 -0.0512427 -0.0227804 -0.0237182 -0.0544832 0 0 -2.96488 0 0 
314 1 314 0.499854 0.539918 0 0 -0.0594673 -0.00691956 -0.021267 -0.028116 0 0 -2.45819 0 0 
315 1 315 0.499835 0.579925 0 0 -0.0570876 0.0434117 -0.00437249 -0.0040482 0 0 -1.72556 0 0 
316 1 316 0.499828 0.61994 0 0 -0.0703973 0.0845365 0.00453813 0.0355275 0 0 -1.7319 0 0 
317 1 317 0.499835 0.659962 0 0 -0.0905898 0.116494 0.00830778 0.0545385 0 0 -0.955785 0 0 
318 1 318 0.499848 0.699989 0 0 -0.106575 0.128236 0.0069475 0.068991 0 0 -0.504653 0 0 
319 1 319 0.499861 0.740019 0 0 -0.132085 0.128458 -0.00115497 0.0643575 0 0 -0.37772 0 0 
320 1 320 0.499866 0.780049 0 0 -0.159198 0.112308 -0.0150204 0.0525883 0 0 -1.01182 0 0 
321 1 321 0.499865 0.82008 0 0 -0.167729 0.110479 -0.0183381 0.0594415 0 0 -2.17668 0 0 
322 1 322 0.499858 0.860109 0 0 -0.178817 0.0836505 -0.0304934 0.0420407 0 0 -1.76444 0 0 
323 1 323 0.499844 0.900133 0 0 -0.181393 0.0495921 -0.0422382 0.0548488 0 0 -2.06461 0 0 
324 1 324 0.499819 0.940154 0 0 -0.165889 0.0418324 -0.0397587 0.00411712 0 0 -0.50653 0 0 