ITEM: TIMESTEP
0
ITEM: NUMBER OF ATOMS
7127
ITEM: BOX BOUNDS sm sm sm
0 4
0 2
0 0
ITEM: ATOMS id type tag x y z vx 
0 1 0 0 0 0 0 
1 1 1 0 0.04 0 0 
2 1 2 0 0.08 0 0 
3 1 3 0 0.12 0 0 
4 1 4 0 0.16 0 0 
5 1 5 0 0.2 0 0 
6 1 6 0 0.24 0 0 
7 1 7 0 0.28 0 0 
8 1 8 0 0.32 0 0 
9 1 9 0 0.36 0 0 
10 1 10 0 0.4 0 0 
11 1 11 0 0.44 0 0 
12 1 12 0 0.48 0 0 
13 1 13 0 0.52 0 0 
14 1 14 0 0.56 0 0 
15 1 15 0 0.6 0 0 
16 1 16 0 0.64 0 0 
17 1 17 0 0.68 0 0 
18 1 18 0 0.72 0 0 
19 1 19 0 0.76 0 0 
20 1 20 0 0.8 0 0 
21 1 21 0 0.84 0 0 
22 1 22 0 0.88 0 0 
23 1 23 0 0.92 0 0 
24 1 24 0 0.96 0 0 
25 1 25 0 1 0 0 
26 1 26 0.04 0 0 0 
27 1 27 0.0399776 0.0399781 0 0.378391 
28 1 28 0.0399753 0.0799703 0 0.50798 
29 1 29 0.0399701 0.119966 0 0.309597 
30 1 30 0.0399691 0.159965 0 0.00454304 
31 1 31 0.0399709 0.199965 0 -0.182786 
32 1 32 0.0399687 0.239965 0 -0.535382 
33 1 33 0.0399733 0.279963 0 -0.669299 
34 1 34 0.0399713 0.31996 0 -0.510456 
35 1 35 0.0399738 0.359956 0 -0.573654 
36 1 36 0.0399733 0.399951 0 -0.354792 
37 1 37 0.0399713 0.439951 0 -0.258646 
38 1 38 0.0399727 0.47995 0 -0.393307 
39 1 39 0.0399751 0.51995 0 -0.425532 
40 1 40 0.0399748 0.559949 0 -0.451036 
41 1 41 0.0399766 0.599949 0 -0.58248 
42 1 42 0.0399785 0.639949 0 -0.357298 
43 1 43 0.0399714 0.679954 0 -0.402858 
44 1 44 0.039976 0.719961 0 -0.347956 
45 1 45 0.0399682 0.75997 0 -0.0419704 
46 1 46 0.039969 0.799983 0 -0.242913 
47 1 47 0.039971 0.839992 0 0.115064 
48 1 48 0.0399653 0.880007 0 0.173675 
49 1 49 0.0399681 0.920016 0 0.146206 
50 1 50 0.0399623 0.96003 0 0.223539 
51 1 51 0.0399429 1.00006 0 -0.00443048 
52 1 52 0.08 0 0 0 
53 1 53 0.0799682 0.0399733 0 0.627088 
54 1 54 0.0799562 0.0799534 0 0.699759 
55 1 55 0.0799437 0.119939 0 0.484104 
56 1 56 0.0799416 0.15993 0 0.0271574 
57 1 57 0.0799405 0.199924 0 -0.375868 
58 1 58 0.0799383 0.239918 0 -0.945401 
59 1 59 0.0799481 0.279914 0 -1.3302 
60 1 60 0.0799476 0.319906 0 -1.17314 
61 1 61 0.0799509 0.359901 0 -1.07554 
62 1 62 0.0799495 0.399895 0 -0.605842 
63 1 63 0.079944 0.439895 0 -0.468924 
64 1 64 0.0799462 0.479895 0 -0.609003 
65 1 65 0.0799465 0.519901 0 -0.737377 
66 1 66 0.0799502 0.559903 0 -0.826166 
67 1 67 0.079948 0.599909 0 -0.912181 
68 1 68 0.0799514 0.639914 0 -0.621933 
69 1 69 0.0799368 0.679924 0 -0.613692 
70 1 70 0.0799416 0.719938 0 -0.648109 
71 1 71 0.0799303 0.759953 0 -0.250049 
72 1 72 0.0799291 0.799974 0 -0.428881 
73 1 73 0.0799327 0.839991 0 -0.0363496 
74 1 74 0.0799255 0.880012 0 0.061286 
75 1 75 0.0799295 0.92003 0 0.133037 
76 1 76 0.0799147 0.960052 0 0.393823 
77 1 77 0.0799055 1.00007 0 0.187604 
78 1 78 0.12 0 0 0 
79 1 79 0.119965 0.0399702 0 0.403767 
80 1 80 0.119944 0.0799415 0 0.501807 
81 1 81 0.119926 0.119918 0 0.423151 
82 1 82 0.11992 0.159898 0 -0.0366924 
83 1 83 0.119915 0.199884 0 -0.484583 
84 1 84 0.119915 0.239871 0 -1.13276 
85 1 85 0.119925 0.279861 0 -1.7415 
86 1 86 0.119926 0.31985 0 -1.65403 
87 1 87 0.11993 0.359843 0 -1.34086 
88 1 88 0.119926 0.39984 0 -0.724693 
89 1 89 0.119917 0.439841 0 -0.596486 
90 1 90 0.119918 0.479845 0 -0.6699 
91 1 91 0.119915 0.519855 0 -0.929788 
92 1 92 0.119921 0.559866 0 -1.16655 
93 1 93 0.119919 0.599875 0 -1.11435 
94 1 94 0.119918 0.639892 0 -0.949852 
95 1 95 0.119906 0.679905 0 -0.866077 
96 1 96 0.1199 0.719926 0 -0.854527 
97 1 97 0.119891 0.759945 0 -0.678742 
98 1 98 0.119888 0.799968 0 -0.626015 
99 1 99 0.119888 0.839991 0 -0.238827 
100 1 100 0.119885 0.880013 0 -0.164481 
101 1 101 0.119886 0.920038 0 0.234103 
102 1 102 0.119876 0.960056 0 0.577945 
103 1 103 0.119872 1.00008 0 0.335721 
104 1 104 0.16 0 0 0 
105 1 105 0.159965 0.0399656 0 -0.0197655 
106 1 106 0.159939 0.0799305 0 0.146221 
107 1 107 0.159917 0.119901 0 0.238504 
108 1 108 0.159905 0.159871 0 -0.127681 
109 1 109 0.159895 0.19985 0 -0.610177 
110 1 110 0.159896 0.23983 0 -1.33035 
111 1 111 0.159905 0.279814 0 -1.97524 
112 1 112 0.159906 0.319803 0 -1.93695 
113 1 113 0.159908 0.359795 0 -1.51216 
114 1 114 0.1599 0.399795 0 -0.874776 
115 1 115 0.159889 0.439798 0 -0.691159 
116 1 116 0.159885 0.479808 0 -0.671037 
117 1 117 0.15988 0.51982 0 -1.01191 
118 1 118 0.159884 0.559837 0 -1.29939 
119 1 119 0.159879 0.599852 0 -1.2061 
120 1 120 0.159874 0.639873 0 -1.22001 
121 1 121 0.159865 0.679893 0 -1.10757 
122 1 122 0.159856 0.719913 0 -0.966753 
123 1 123 0.159845 0.75994 0 -1.04303 
124 1 124 0.159846 0.799958 0 -0.860199 
125 1 125 0.159842 0.839987 0 -0.450534 
126 1 126 0.159842 0.880009 0 -0.323637 
127 1 127 0.159843 0.920032 0 0.369381 
128 1 128 0.159835 0.960056 0 0.539077 
129 1 129 0.159841 1.00007 0 0.119235 
130 1 130 0.2 0 0 0 
131 1 131 0.19997 0.0399646 0 -0.320161 
132 1 132 0.199941 0.0799256 0 -0.130492 
133 1 133 0.199915 0.11989 0 0.173022 
134 1 134 0.199897 0.159856 0 -0.0697598 
135 1 135 0.199883 0.199828 0 -0.663679 
136 1 136 0.199882 0.239803 0 -1.38537 
137 1 137 0.199887 0.279783 0 -2.0476 
138 1 138 0.199887 0.319771 0 -2.21244 
139 1 139 0.199885 0.359763 0 -1.79169 
140 1 140 0.199873 0.399763 0 -1.23885 
141 1 141 0.199861 0.439767 0 -1.00152 
142 1 142 0.199851 0.479778 0 -0.821983 
143 1 143 0.199843 0.519791 0 -1.15095 
144 1 144 0.199847 0.559811 0 -1.3022 
145 1 145 0.19984 0.599833 0 -1.16322 
146 1 146 0.199836 0.639854 0 -1.29887 
147 1 147 0.199827 0.67988 0 -1.12166 
148 1 148 0.199814 0.719901 0 -1.03522 
149 1 149 0.199805 0.759926 0 -1.27277 
150 1 150 0.199803 0.799948 0 -0.955331 
151 1 151 0.199796 0.839971 0 -0.689295 
152 1 152 0.199802 0.879997 0 -0.457785 
153 1 153 0.199801 0.920021 0 0.45561 
154 1 154 0.199798 0.960043 0 0.453844 
155 1 155 0.199814 1.00006 0 -0.00865759 
156 1 156 0.24 0 0 0 
157 1 157 0.239975 0.039966 0 -0.49766 
158 1 158 0.239943 0.0799291 0 -0.209397 
159 1 159 0.239917 0.119893 0 0.267337 
160 1 160 0.239893 0.159859 0 0.116117 
161 1 161 0.239876 0.199827 0 -0.571025 
162 1 162 0.239872 0.239799 0 -1.33828 
163 1 163 0.239873 0.279776 0 -2.09416 
164 1 164 0.239868 0.319759 0 -2.46214 
165 1 165 0.239862 0.35975 0 -2.1675 
166 1 166 0.239847 0.399747 0 -1.81657 
167 1 167 0.239831 0.439747 0 -1.59549 
168 1 168 0.239817 0.479754 0 -1.20408 
169 1 169 0.239803 0.519767 0 -1.2901 
170 1 170 0.239801 0.559786 0 -1.29307 
171 1 171 0.239792 0.59981 0 -1.11051 
172 1 172 0.239786 0.639834 0 -1.27292 
173 1 173 0.23978 0.679858 0 -1.08765 
174 1 174 0.239767 0.719883 0 -1.05741 
175 1 175 0.239762 0.759903 0 -1.44234 
176 1 176 0.239762 0.799925 0 -1.07023 
177 1 177 0.239751 0.839949 0 -0.899237 
178 1 178 0.239758 0.879971 0 -0.618433 
179 1 179 0.239756 0.919998 0 0.296636 
180 1 180 0.239762 0.960019 0 0.254364 
181 1 181 0.239785 1.00003 0 -0.0356761 
182 1 182 0.28 0 0 0 
183 1 183 0.279978 0.0399677 0 -0.509359 
184 1 184 0.279946 0.0799365 0 -0.0589829 
185 1 185 0.279919 0.119903 0 0.47543 
186 1 186 0.279891 0.159872 0 0.357828 
187 1 187 0.279873 0.199839 0 -0.404316 
188 1 188 0.279866 0.23981 0 -1.29389 
189 1 189 0.279861 0.279784 0 -2.0491 
190 1 190 0.279853 0.319764 0 -2.53958 
191 1 191 0.279841 0.35975 0 -2.67762 
192 1 192 0.279825 0.399742 0 -2.59481 
193 1 193 0.279804 0.439737 0 -2.28483 
194 1 194 0.279787 0.47974 0 -1.78732 
195 1 195 0.279769 0.519748 0 -1.45908 
196 1 196 0.279759 0.559764 0 -1.26366 
197 1 197 0.279752 0.599785 0 -1.12992 
198 1 198 0.279746 0.639809 0 -1.18121 
199 1 199 0.27974 0.679834 0 -1.14547 
200 1 200 0.279729 0.719855 0 -1.13073 
201 1 201 0.279722 0.759876 0 -1.4576 
202 1 202 0.27972 0.799895 0 -1.32365 
203 1 203 0.27971 0.839918 0 -1.22441 
204 1 204 0.279715 0.879939 0 -0.74719 
205 1 205 0.279711 0.919963 0 0.022876 
206 1 206 0.279726 0.959985 0 0.0733152 
207 1 207 0.279755 1 0 0.122233 
208 1 208 0.32 0 0 0 
209 1 209 0.319977 0.0399713 0 -0.43446 
210 1 210 0.319946 0.0799441 0 0.0909962 
211 1 211 0.319918 0.119913 0 0.632305 
212 1 212 0.31989 0.159886 0 0.510045 
213 1 213 0.319872 0.199854 0 -0.239767 
214 1 214 0.31986 0.239826 0 -1.11743 
215 1 215 0.319852 0.279799 0 -1.84868 
216 1 216 0.319841 0.319778 0 -2.48382 
217 1 217 0.319821 0.359762 0 -3.11063 
218 1 218 0.319805 0.399749 0 -3.32038 
219 1 219 0.31978 0.439741 0 -2.93668 
220 1 220 0.319756 0.479738 0 -2.45928 
221 1 221 0.319734 0.51974 0 -1.74989 
222 1 222 0.319714 0.559752 0 -1.31687 
223 1 223 0.319703 0.599769 0 -1.28626 
224 1 224 0.319694 0.639787 0 -1.20977 
225 1 225 0.319689 0.679809 0 -1.33273 
226 1 226 0.319685 0.719826 0 -1.36439 
227 1 227 0.319681 0.759842 0 -1.51993 
228 1 228 0.319675 0.79986 0 -1.61255 
229 1 229 0.319667 0.839878 0 -1.61634 
230 1 230 0.319669 0.879899 0 -0.992207 
231 1 231 0.319665 0.919922 0 -0.379164 
232 1 232 0.319687 0.959941 0 -0.0802853 
233 1 233 0.319716 0.999961 0 0.382769 
234 1 234 0.36 0 0 0 
235 1 235 0.359976 0.0399734 0 -0.293139 
236 1 236 0.359945 0.0799483 0 0.170519 
237 1 237 0.359916 0.11992 0 0.646529 
238 1 238 0.359889 0.159895 0 0.495001 
239 1 239 0.359872 0.199865 0 -0.168732 
240 1 240 0.359857 0.239839 0 -0.935809 
241 1 241 0.359844 0.279814 0 -1.70684 
242 1 242 0.359829 0.319793 0 -2.48057 
243 1 243 0.359805 0.359775 0 -3.34378 
244 1 244 0.359786 0.39976 0 -3.79301 
245 1 245 0.359758 0.439749 0 -3.46558 
246 1 246 0.35973 0.479741 0 -2.92279 
247 1 247 0.359703 0.51974 0 -1.93152 
248 1 248 0.359678 0.559744 0 -1.40293 
249 1 249 0.359669 0.599755 0 -1.39641 
250 1 250 0.359658 0.639768 0 -1.25855 
251 1 251 0.359653 0.679784 0 -1.53598 
252 1 252 0.359652 0.719798 0 -1.53939 
253 1 253 0.359644 0.75981 0 -1.63914 
254 1 254 0.359637 0.799825 0 -1.92471 
255 1 255 0.359627 0.83984 0 -1.89885 
256 1 256 0.359623 0.879859 0 -1.28307 
257 1 257 0.359621 0.919879 0 -0.861231 
258 1 258 0.359645 0.959899 0 -0.267152 
259 1 259 0.359671 0.99992 0 0.527265 
260 1 260 0.4 0 0 0 
261 1 261 0.399972 0.039974 0 -0.150262 
262 1 262 0.399942 0.0799503 0 0.1635 
263 1 263 0.399914 0.119925 0 0.485887 
264 1 264 0.399887 0.159899 0 0.336225 
265 1 265 0.39987 0.199872 0 -0.174294 
266 1 266 0.399852 0.239846 0 -0.823967 
267 1 267 0.399835 0.279823 0 -1.51534 
268 1 268 0.399815 0.319803 0 -2.36981 
269 1 269 0.399788 0.359784 0 -3.41657 
270 1 270 0.399765 0.39977 0 -4.01589 
271 1 271 0.399734 0.439758 0 -3.82747 
272 1 272 0.399703 0.479748 0 -3.19215 
273 1 273 0.399671 0.519745 0 -2.0196 
274 1 274 0.399638 0.559744 0 -1.49953 
275 1 275 0.399624 0.599748 0 -1.44869 
276 1 276 0.399609 0.639757 0 -1.34773 
277 1 277 0.399607 0.679767 0 -1.77982 
278 1 278 0.399609 0.719775 0 -1.71238 
279 1 279 0.399601 0.759786 0 -1.82293 
280 1 280 0.399594 0.799798 0 -2.25332 
281 1 281 0.399584 0.83981 0 -2.12223 
282 1 282 0.399577 0.879827 0 -1.54138 
283 1 283 0.399576 0.919844 0 -1.24015 
284 1 284 0.399599 0.959863 0 -0.425539 
285 1 285 0.399618 0.999886 0 0.526643 
286 1 286 0.44 0 0 0 
287 1 287 0.439969 0.0399738 0 0.0348553 
288 1 288 0.439938 0.0799494 0 0.139714 
289 1 289 0.43991 0.119926 0 0.204661 
290 1 290 0.439886 0.1599 0 0.0842459 
291 1 291 0.439868 0.199874 0 -0.165646 
292 1 292 0.439847 0.23985 0 -0.693527 
293 1 293 0.439825 0.279826 0 -1.30546 
294 1 294 0.439801 0.31981 0 -2.23222 
295 1 295 0.439772 0.359792 0 -3.3935 
296 1 296 0.439743 0.399777 0 -3.9885 
297 1 297 0.43971 0.439766 0 -3.89782 
298 1 298 0.439678 0.479756 0 -3.28734 
299 1 299 0.439643 0.51975 0 -2.1293 
300 1 300 0.439611 0.559745 0 -1.62565 
301 1 301 0.439597 0.599745 0 -1.52329 
302 1 302 0.439581 0.639748 0 -1.49884 
303 1 303 0.439579 0.679754 0 -1.94606 
304 1 304 0.439579 0.71976 0 -1.83162 
305 1 305 0.439567 0.759769 0 -1.94708 
306 1 306 0.439558 0.799778 0 -2.30353 
307 1 307 0.439544 0.83979 0 -2.1255 
308 1 308 0.439534 0.879804 0 -1.73571 
309 1 309 0.439533 0.919818 0 -1.5279 
310 1 310 0.439549 0.959837 0 -0.657508 
311 1 311 0.43956 0.999861 0 0.258668 
312 1 312 0.48 0 0 0 
313 1 313 0.479963 0.0399737 0 0.248049 
314 1 314 0.479932 0.0799485 0 0.152644 
315 1 315 0.479906 0.119926 0 0.00233133 
316 1 316 0.479883 0.1599 0 -0.0332643 
317 1 317 0.479863 0.199875 0 -0.0783284 
318 1 318 0.47984 0.239854 0 -0.515762 
319 1 319 0.479812 0.279834 0 -1.12415 
320 1 320 0.479784 0.319818 0 -2.1218 
321 1 321 0.479752 0.359803 0 -3.16031 
322 1 322 0.479719 0.39979 0 -3.75988 
323 1 323 0.479685 0.439778 0 -3.82074 
324 1 324 0.479649 0.47977 0 -3.22691 
325 1 325 0.479613 0.51976 0 -2.28891 
326 1 326 0.479579 0.559753 0 -1.84415 
327 1 327 0.479557 0.599748 0 -1.71165 
328 1 328 0.479537 0.639746 0 -1.80065 
329 1 329 0.479535 0.679747 0 -2.17691 
330 1 330 0.479534 0.719752 0 -2.11173 
331 1 331 0.479524 0.759759 0 -2.20937 
332 1 332 0.479515 0.799767 0 -2.31495 
333 1 333 0.4795 0.839779 0 -2.1156 
334 1 334 0.479489 0.879791 0 -1.86966 
335 1 335 0.479486 0.919804 0 -1.65216 
336 1 336 0.479496 0.959824 0 -0.886841 
337 1 337 0.4795 0.999848 0 -0.157459 
338 1 338 0.52 0 0 0 
339 1 339 0.519959 0.0399719 0 0.396154 
340 1 340 0.519926 0.0799471 0 0.146132 
341 1 341 0.5199 0.119924 0 -0.193265 
342 1 342 0.519878 0.1599 0 -0.0784402 
343 1 343 0.519855 0.199878 0 0.100363 
344 1 344 0.519829 0.239858 0 -0.190762 
345 1 345 0.519795 0.279843 0 -0.748093 
346 1 346 0.519765 0.319829 0 -1.88269 
347 1 347 0.519733 0.359815 0 -2.79509 
348 1 348 0.519695 0.399805 0 -3.41605 
349 1 349 0.519661 0.439793 0 -3.66999 
350 1 350 0.519624 0.479784 0 -3.14132 
351 1 351 0.51959 0.519774 0 -2.55711 
352 1 352 0.51956 0.559762 0 -2.22452 
353 1 353 0.519537 0.599752 0 -2.05848 
354 1 354 0.51952 0.639747 0 -2.17673 
355 1 355 0.519513 0.679744 0 -2.3582 
356 1 356 0.519502 0.719747 0 -2.34128 
357 1 357 0.519491 0.759755 0 -2.33319 
358 1 358 0.519476 0.799764 0 -2.13631 
359 1 359 0.519458 0.839777 0 -2.00202 
360 1 360 0.519447 0.879788 0 -1.83919 
361 1 361 0.519441 0.919801 0 -1.60186 
362 1 362 0.519442 0.959822 0 -1.09034 
363 1 363 0.519439 0.999846 0 -0.615627 
364 1 364 0.56 0 0 0 
365 1 365 0.559952 0.0399711 0 0.521881 
366 1 366 0.559917 0.0799463 0 0.231411 
367 1 367 0.559891 0.119923 0 -0.293765 
368 1 368 0.559869 0.1599 0 -0.0853751 
369 1 369 0.55984 0.199882 0 0.321107 
370 1 370 0.559812 0.239866 0 0.0872769 
371 1 371 0.559776 0.279853 0 -0.474851 
372 1 372 0.559742 0.319843 0 -1.61458 
373 1 373 0.55971 0.359832 0 -2.39379 
374 1 374 0.55967 0.399822 0 -2.95216 
375 1 375 0.559636 0.439812 0 -3.27461 
376 1 376 0.559599 0.479802 0 -3.00212 
377 1 377 0.559567 0.51979 0 -2.80243 
378 1 378 0.559535 0.559776 0 -2.51937 
379 1 379 0.559504 0.599763 0 -2.40487 
380 1 380 0.559481 0.639753 0 -2.5101 
381 1 381 0.559469 0.679748 0 -2.49295 
382 1 382 0.559454 0.719751 0 -2.56568 
383 1 383 0.559444 0.759758 0 -2.42299 
384 1 384 0.559426 0.799769 0 -1.99968 
385 1 385 0.559409 0.839782 0 -1.95357 
386 1 386 0.559401 0.879794 0 -1.80942 
387 1 387 0.559391 0.919808 0 -1.57538 
388 1 388 0.559385 0.959829 0 -1.28634 
389 1 389 0.559378 0.999854 0 -1.00378 
390 1 390 0.6 0 0 0 
391 1 391 0.599947 0.0399704 0 0.53988 
392 1 392 0.59991 0.0799431 0 0.197514 
393 1 393 0.599879 0.119921 0 -0.395528 
394 1 394 0.599855 0.1599 0 -0.115639 
395 1 395 0.599823 0.199884 0 0.47065 
396 1 396 0.59979 0.239872 0 0.306983 
397 1 397 0.599751 0.279862 0 -0.308359 
398 1 398 0.599717 0.319853 0 -1.34281 
399 1 399 0.599685 0.359845 0 -1.95075 
400 1 400 0.599646 0.399837 0 -2.50327 
401 1 401 0.599615 0.439827 0 -2.81458 
402 1 402 0.599577 0.479816 0 -2.77468 
403 1 403 0.599551 0.519802 0 -2.91804 
404 1 404 0.599523 0.559788 0 -2.68049 
405 1 405 0.599493 0.599773 0 -2.61858 
406 1 406 0.599472 0.639762 0 -2.62507 
407 1 407 0.599449 0.679757 0 -2.4586 
408 1 408 0.599425 0.71976 0 -2.62408 
409 1 409 0.599409 0.759768 0 -2.34466 
410 1 410 0.599385 0.799781 0 -1.80835 
411 1 411 0.599368 0.839794 0 -1.7866 
412 1 412 0.599356 0.879807 0 -1.6413 
413 1 413 0.599341 0.919822 0 -1.49824 
414 1 414 0.599329 0.959843 0 -1.34009 
415 1 415 0.599315 0.999869 0 -1.15542 
416 1 416 0.64 0 0 0 
417 1 417 0.639942 0.0399692 0 0.501701 
418 1 418 0.6399 0.0799407 0 0.0706087 
419 1 419 0.639866 0.119918 0 -0.498811 
420 1 420 0.639836 0.159899 0 -0.178109 
421 1 421 0.639799 0.199884 0 0.415745 
422 1 422 0.639764 0.239874 0 0.376304 
423 1 423 0.639723 0.279867 0 -0.186717 
424 1 424 0.63969 0.31986 0 -1.10437 
425 1 425 0.639659 0.359854 0 -1.5371 
426 1 426 0.639621 0.399848 0 -2.02873 
427 1 427 0.639591 0.439839 0 -2.30363 
428 1 428 0.639556 0.479829 0 -2.44703 
429 1 429 0.639532 0.519817 0 -2.78389 
430 1 430 0.6395 0.559802 0 -2.63071 
431 1 431 0.639463 0.599789 0 -2.62314 
432 1 432 0.639434 0.639778 0 -2.50893 
433 1 433 0.639404 0.679773 0 -2.31337 
434 1 434 0.639377 0.719775 0 -2.51863 
435 1 435 0.639358 0.759783 0 -2.18171 
436 1 436 0.639332 0.799797 0 -1.73105 
437 1 437 0.639318 0.839809 0 -1.68861 
438 1 438 0.639305 0.879824 0 -1.53115 
439 1 439 0.639288 0.919841 0 -1.46987 
440 1 440 0.639272 0.959862 0 -1.30858 
441 1 441 0.639251 0.999889 0 -1.15568 
442 1 442 0.68 0 0 0 
443 1 443 0.679941 0.0399672 0 0.36746 
444 1 444 0.679893 0.0799384 0 -0.0341748 
445 1 445 0.679851 0.119913 0 -0.490516 
446 1 446 0.679815 0.159896 0 -0.217103 
447 1 447 0.679774 0.199882 0 0.233879 
448 1 448 0.679735 0.239873 0 0.261749 
449 1 449 0.679694 0.279866 0 -0.172982 
450 1 450 0.679661 0.319861 0 -0.895256 
451 1 451 0.679631 0.359857 0 -1.23481 
452 1 452 0.679598 0.399852 0 -1.6274 
453 1 453 0.67957 0.439845 0 -1.8241 
454 1 454 0.679538 0.479836 0 -2.22534 
455 1 455 0.679517 0.519825 0 -2.65338 
456 1 456 0.679486 0.559814 0 -2.5646 
457 1 457 0.679455 0.599804 0 -2.57941 
458 1 458 0.679425 0.639795 0 -2.31654 
459 1 459 0.679386 0.679792 0 -2.15734 
460 1 460 0.67935 0.719796 0 -2.3332 
461 1 461 0.679322 0.759803 0 -2.01402 
462 1 462 0.679294 0.799816 0 -1.69411 
463 1 463 0.679278 0.839828 0 -1.52957 
464 1 464 0.679257 0.879846 0 -1.39987 
465 1 465 0.679238 0.919864 0 -1.3959 
466 1 466 0.679214 0.959887 0 -1.13583 
467 1 467 0.679185 0.999916 0 -0.997118 
468 1 468 0.72 0 0 0 
469 1 469 0.719939 0.0399674 0 0.17988 
470 1 470 0.719887 0.0799364 0 -0.111263 
471 1 471 0.719838 0.11991 0 -0.421557 
472 1 472 0.719794 0.159892 0 -0.301692 
473 1 473 0.719747 0.199879 0 0.0345282 
474 1 474 0.719705 0.239871 0 0.171248 
475 1 475 0.719664 0.279864 0 -0.164307 
476 1 476 0.71963 0.31986 0 -0.660549 
477 1 477 0.7196 0.359857 0 -0.990193 
478 1 478 0.719572 0.399855 0 -1.3946 
479 1 479 0.719547 0.43985 0 -1.55679 
480 1 480 0.719518 0.479843 0 -2.11948 
481 1 481 0.719496 0.519835 0 -2.53735 
482 1 482 0.719459 0.559829 0 -2.5754 
483 1 483 0.719421 0.599822 0 -2.59564 
484 1 484 0.719381 0.639817 0 -2.2379 
485 1 485 0.719338 0.679816 0 -2.15029 
486 1 486 0.719301 0.719819 0 -2.22303 
487 1 487 0.719269 0.759826 0 -1.99096 
488 1 488 0.719242 0.799838 0 -1.77786 
489 1 489 0.719226 0.839852 0 -1.45201 
490 1 490 0.719202 0.879871 0 -1.36738 
491 1 491 0.719182 0.919893 0 -1.31883 
492 1 492 0.719153 0.959919 0 -0.945595 
493 1 493 0.719118 0.999949 0 -0.872034 
494 1 494 0.76 0 0 0 
495 1 495 0.759942 0.0399668 0 0.066852 
496 1 496 0.759884 0.0799337 0 -0.126058 
497 1 497 0.759826 0.119906 0 -0.282212 
498 1 498 0.759773 0.159889 0 -0.354845 
499 1 499 0.759723 0.199874 0 -0.270711 
500 1 500 0.759677 0.239866 0 -0.0576561 
501 1 501 0.759636 0.279858 0 -0.205618 
502 1 502 0.759601 0.319854 0 -0.463016 
503 1 503 0.75957 0.359853 0 -0.805185 
504 1 504 0.759546 0.399851 0 -1.26343 
505 1 505 0.759522 0.439847 0 -1.51372 
506 1 506 0.759497 0.479843 0 -2.26305 
507 1 507 0.759475 0.519838 0 -2.69844 
508 1 508 0.759439 0.559835 0 -2.85684 
509 1 509 0.759408 0.599833 0 -2.78268 
510 1 510 0.759366 0.639834 0 -2.35438 
511 1 511 0.759319 0.679837 0 -2.24933 
512 1 512 0.759273 0.719842 0 -2.09254 
513 1 513 0.759234 0.759851 0 -1.93916 
514 1 514 0.759205 0.799864 0 -1.81319 
515 1 515 0.759183 0.83988 0 -1.42679 
516 1 516 0.759152 0.879902 0 -1.36292 
517 1 517 0.759128 0.919927 0 -1.17758 
518 1 518 0.759091 0.959956 0 -0.816949 
519 1 519 0.759051 0.999987 0 -0.90012 
520 1 520 0.8 0 0 0 
521 1 521 0.799943 0.0399664 0 -0.0180047 
522 1 522 0.799881 0.0799343 0 -0.15562 
523 1 523 0.799816 0.119906 0 -0.20794 
524 1 524 0.799755 0.159886 0 -0.442004 
525 1 525 0.7997 0.199871 0 -0.64748 
526 1 526 0.79965 0.239859 0 -0.417272 
527 1 527 0.799607 0.279851 0 -0.340188 
528 1 528 0.799569 0.319846 0 -0.377847 
529 1 529 0.799536 0.359844 0 -0.780805 
530 1 530 0.799515 0.399844 0 -1.34689 
531 1 531 0.799492 0.439842 0 -1.70985 
532 1 532 0.799469 0.479841 0 -2.53817 
533 1 533 0.799444 0.519839 0 -2.89897 
534 1 534 0.799402 0.559841 0 -3.0734 
535 1 535 0.799362 0.599844 0 -2.92474 
536 1 536 0.79931 0.639849 0 -2.56677 
537 1 537 0.799263 0.679856 0 -2.41898 
538 1 538 0.799217 0.719864 0 -2.09258 
539 1 539 0.799178 0.759876 0 -2.05111 
540 1 540 0.799148 0.799891 0 -1.92345 
541 1 541 0.799123 0.839911 0 -1.51616 
542 1 542 0.799092 0.879936 0 -1.37232 
543 1 543 0.799065 0.919965 0 -1.01575 
544 1 544 0.799025 0.959998 0 -0.806108 
545 1 545 0.798985 1.00003 0 -1.07217 
546 1 546 0.84 0 0 0 
547 1 547 0.839947 0.0399665 0 -0.135102 
548 1 548 0.83988 0.0799349 0 -0.183251 
549 1 549 0.839807 0.119906 0 -0.201924 
550 1 550 0.83974 0.159883 0 -0.724994 
551 1 551 0.839681 0.199865 0 -1.23415 
552 1 552 0.839626 0.239851 0 -1.00101 
553 1 553 0.839581 0.27984 0 -0.720611 
554 1 554 0.839539 0.319833 0 -0.490093 
555 1 555 0.839503 0.359831 0 -0.825552 
556 1 556 0.839482 0.39983 0 -1.42483 
557 1 557 0.839459 0.439829 0 -1.88503 
558 1 558 0.839437 0.479829 0 -2.73183 
559 1 559 0.839408 0.519831 0 -3.08082 
560 1 560 0.839369 0.559837 0 -3.32917 
561 1 561 0.839334 0.599844 0 -3.10835 
562 1 562 0.839285 0.639856 0 -2.7574 
563 1 563 0.839237 0.679869 0 -2.43446 
564 1 564 0.839183 0.719884 0 -1.99416 
565 1 565 0.83914 0.759901 0 -2.03824 
566 1 566 0.839104 0.79992 0 -1.87341 
567 1 567 0.83907 0.839945 0 -1.60297 
568 1 568 0.839035 0.879974 0 -1.38889 
569 1 569 0.839001 0.920006 0 -0.907937 
570 1 570 0.838958 0.96004 0 -0.923342 
571 1 571 0.83892 1.00007 0 -1.33229 
572 1 572 0.88 0 0 0 
573 1 573 0.879946 0.0399686 0 -0.299896 
574 1 574 0.879877 0.0799364 0 -0.33321 
575 1 575 0.879801 0.119907 0 -0.398471 
576 1 576 0.879727 0.159881 0 -1.16818 
577 1 577 0.879663 0.199859 0 -1.91374 
578 1 578 0.879605 0.239842 0 -1.69443 
579 1 579 0.879554 0.279829 0 -1.2316 
580 1 580 0.879507 0.319819 0 -0.806421 
581 1 581 0.879464 0.359816 0 -1.06459 
582 1 582 0.87944 0.399814 0 -1.65255 
583 1 583 0.879416 0.439816 0 -2.16897 
584 1 584 0.879393 0.479819 0 -2.87361 
585 1 585 0.87936 0.519824 0 -3.0586 
586 1 586 0.879318 0.559835 0 -3.19421 
587 1 587 0.879271 0.599846 0 -2.87314 
588 1 588 0.879213 0.639864 0 -2.67476 
589 1 589 0.879165 0.679882 0 -2.3416 
590 1 590 0.879113 0.719903 0 -1.93856 
591 1 591 0.879072 0.759924 0 -2.03608 
592 1 592 0.879033 0.799949 0 -1.87115 
593 1 593 0.878997 0.839979 0 -1.76476 
594 1 594 0.878962 0.880011 0 -1.39517 
595 1 595 0.878926 0.920047 0 -0.878473 
596 1 596 0.878886 0.960082 0 -1.12575 
597 1 597 0.878854 1.00011 0 -1.58696 
598 1 598 0.92 0 0 0 
599 1 599 0.919946 0.0399681 0 -0.463978 
600 1 600 0.919874 0.0799364 0 -0.589549 
601 1 601 0.919794 0.119907 0 -0.757632 
602 1 602 0.919716 0.159878 0 -1.64643 
603 1 603 0.919647 0.199853 0 -2.60742 
604 1 604 0.919583 0.239832 0 -2.55515 
605 1 605 0.919527 0.279817 0 -2.01313 
606 1 606 0.919474 0.319805 0 -1.43273 
607 1 607 0.919427 0.3598 0 -1.48228 
608 1 608 0.919398 0.399798 0 -1.85292 
609 1 609 0.919371 0.439802 0 -2.22981 
610 1 610 0.919345 0.479807 0 -2.6396 
611 1 611 0.919308 0.519817 0 -2.65354 
612 1 612 0.919267 0.559831 0 -2.7214 
613 1 613 0.919225 0.599848 0 -2.42107 
614 1 614 0.919173 0.639872 0 -2.40306 
615 1 615 0.919124 0.679896 0 -2.08977 
616 1 616 0.919065 0.719924 0 -1.81899 
617 1 617 0.919022 0.759952 0 -1.98648 
618 1 618 0.918975 0.799982 0 -1.92263 
619 1 619 0.918933 0.840015 0 -1.96819 
620 1 620 0.918893 0.88005 0 -1.47448 
621 1 621 0.918854 0.920086 0 -1.04924 
622 1 622 0.918816 0.960121 0 -1.36949 
623 1 623 0.918785 1.00015 0 -1.72501 
624 1 624 0.96 0 0 0 
625 1 625 0.95994 0.0399681 0 -0.710565 
626 1 626 0.959867 0.0799387 0 -0.934508 
627 1 627 0.959787 0.119908 0 -1.20832 
628 1 628 0.959705 0.159877 0 -2.15771 
629 1 629 0.95963 0.19985 0 -3.20293 
630 1 630 0.959562 0.239827 0 -3.30637 
631 1 631 0.9595 0.27981 0 -2.78748 
632 1 632 0.959441 0.319798 0 -2.0812 
633 1 633 0.959387 0.359793 0 -1.84074 
634 1 634 0.959349 0.399791 0 -1.96672 
635 1 635 0.959316 0.439798 0 -2.22108 
636 1 636 0.959285 0.479809 0 -2.33755 
637 1 637 0.959244 0.519824 0 -2.09666 
638 1 638 0.959199 0.559843 0 -1.96078 
639 1 639 0.959145 0.599864 0 -1.64104 
640 1 640 0.959084 0.639892 0 -1.77332 
641 1 641 0.959034 0.679919 0 -1.6406 
642 1 642 0.95898 0.719951 0 -1.69222 
643 1 643 0.958939 0.759983 0 -1.9586 
644 1 644 0.958889 0.800017 0 -2.03759 
645 1 645 0.95885 0.840052 0 -2.16967 
646 1 646 0.958811 0.880088 0 -1.64093 
647 1 647 0.958775 0.920122 0 -1.39649 
648 1 648 0.958742 0.960156 0 -1.62749 
649 1 649 0.958712 1.00019 0 -1.79285 
650 1 650 1 0 0 0 
651 1 651 0.999934 0.0399675 0 -1.00694 
652 1 652 0.999858 0.0799388 0 -1.37453 
653 1 653 0.999777 0.119909 0 -1.71722 
654 1 654 0.999693 0.159878 0 -2.56446 
655 1 655 0.999614 0.19985 0 -3.50682 
656 1 656 0.999539 0.239826 0 -3.75339 
657 1 657 0.999469 0.279809 0 -3.41981 
658 1 658 0.999404 0.319797 0 -2.79421 
659 1 659 0.999346 0.359792 0 -2.38379 
660 1 660 0.999301 0.399793 0 -2.19932 
661 1 661 0.999263 0.439804 0 -2.0896 
662 1 662 0.999227 0.479819 0 -1.71875 
663 1 663 0.999182 0.51984 0 -1.16806 
664 1 664 0.999138 0.559863 0 -0.901631 
665 1 665 0.999087 0.59989 0 -0.705783 
666 1 666 0.999032 0.639921 0 -1.06678 
667 1 667 0.99898 0.679954 0 -1.26104 
668 1 668 0.998923 0.719989 0 -1.67745 
669 1 669 0.998877 0.760023 0 -2.04342 
670 1 670 0.998822 0.80006 0 -2.37358 
671 1 671 0.99878 0.840094 0 -2.57191 
672 1 672 0.998736 0.880129 0 -2.01801 
673 1 673 0.998702 0.92016 0 -1.88008 
674 1 674 0.998669 0.960192 0 -1.94077 
675 1 675 0.998634 1.00023 0 -1.96856 
676 1 676 1.04 0 0 0 
677 1 677 1.03992 0.0399673 0 -1.1995 
678 1 678 1.03984 0.0799391 0 -1.70815 
679 1 679 1.03977 0.119911 0 -2.12563 
680 1 680 1.03968 0.159882 0 -2.85267 
681 1 681 1.03959 0.199855 0 -3.68131 
682 1 682 1.03951 0.239833 0 -4.08758 
683 1 683 1.03944 0.279818 0 -3.95286 
684 1 684 1.03937 0.319808 0 -3.32372 
685 1 685 1.0393 0.359806 0 -2.60193 
686 1 686 1.03925 0.399811 0 -2.06973 
687 1 687 1.0392 0.439826 0 -1.70053 
688 1 688 1.03916 0.479848 0 -1.06638 
689 1 689 1.03911 0.519875 0 -0.37715 
690 1 690 1.03906 0.559904 0 -0.0190625 
691 1 691 1.039 0.599934 0 0.106308 
692 1 692 1.03893 0.639966 0 -0.406809 
693 1 693 1.03888 0.679999 0 -0.947872 
694 1 694 1.03883 0.720034 0 -1.71021 
695 1 695 1.03878 0.760069 0 -2.20241 
696 1 696 1.03873 0.800105 0 -2.76585 
697 1 697 1.0387 0.840137 0 -2.94105 
698 1 698 1.03865 0.880171 0 -2.43569 
699 1 699 1.03863 0.920199 0 -2.37092 
700 1 700 1.03859 0.960231 0 -2.25567 
701 1 701 1.03855 1.00027 0 -2.24093 
702 1 702 1.08 0 0 0 
703 1 703 1.07991 0.0399657 0 -1.30832 
704 1 704 1.07983 0.0799391 0 -2.04237 
705 1 705 1.07975 0.119913 0 -2.60683 
706 1 706 1.07966 0.159887 0 -3.11467 
707 1 707 1.07957 0.199863 0 -3.62166 
708 1 708 1.07948 0.239844 0 -4.02533 
709 1 709 1.0794 0.279831 0 -4.08221 
710 1 710 1.07932 0.319825 0 -3.5893 
711 1 711 1.07926 0.359826 0 -2.77438 
712 1 712 1.07919 0.399835 0 -2.06172 
713 1 713 1.07914 0.439854 0 -1.49937 
714 1 714 1.07909 0.479881 0 -0.643604 
715 1 715 1.07904 0.519913 0 0.183118 
716 1 716 1.07899 0.559946 0 0.599887 
717 1 717 1.07894 0.599982 0 0.608518 
718 1 718 1.07888 0.640016 0 -0.0555623 
719 1 719 1.07882 0.680051 0 -0.89664 
720 1 720 1.07877 0.720086 0 -1.90277 
721 1 721 1.07872 0.760121 0 -2.49586 
722 1 722 1.07866 0.800155 0 -3.20259 
723 1 723 1.07862 0.840185 0 -3.36731 
724 1 724 1.07858 0.880216 0 -3.04023 
725 1 725 1.07856 0.920243 0 -2.9527 
726 1 726 1.07852 0.960274 0 -2.61673 
727 1 727 1.07847 1.00031 0 -2.61487 
728 1 728 1.12 0 0 0 
729 1 729 1.1199 0.0399654 0 -1.27629 
730 1 730 1.11981 0.0799385 0 -2.2318 
731 1 731 1.11973 0.119915 0 -2.95592 
732 1 732 1.11964 0.159893 0 -3.24699 
733 1 733 1.11954 0.199874 0 -3.45588 
734 1 734 1.11945 0.239859 0 -3.89753 
735 1 735 1.11936 0.27985 0 -4.20399 
736 1 736 1.11928 0.319848 0 -3.90191 
737 1 737 1.11921 0.359852 0 -3.03507 
738 1 738 1.11914 0.399866 0 -2.12215 
739 1 739 1.11907 0.439889 0 -1.3676 
740 1 740 1.11902 0.479921 0 -0.461969 
741 1 741 1.11896 0.519958 0 0.262006 
742 1 742 1.11891 0.559995 0 0.598296 
743 1 743 1.11885 0.600033 0 0.551853 
744 1 744 1.11878 0.640066 0 -0.107421 
745 1 745 1.11872 0.6801 0 -1.06618 
746 1 746 1.11867 0.720133 0 -2.18668 
747 1 747 1.11862 0.760167 0 -2.87925 
748 1 748 1.11857 0.800201 0 -3.64019 
749 1 749 1.11854 0.840231 0 -3.78854 
750 1 750 1.1185 0.880261 0 -3.61372 
751 1 751 1.11848 0.920289 0 -3.43389 
752 1 752 1.11844 0.960322 0 -3.06155 
753 1 753 1.11839 1.00036 0 -3.2104 
754 1 754 1.16 0 0 0 
755 1 755 1.15989 0.0399648 0 -1.15484 
756 1 756 1.15979 0.0799379 0 -2.28454 
757 1 757 1.1597 0.119918 0 -3.19612 
758 1 758 1.15961 0.159899 0 -3.42224 
759 1 759 1.15951 0.199885 0 -3.4752 
760 1 760 1.15941 0.239874 0 -3.88078 
761 1 761 1.15932 0.279868 0 -4.2563 
762 1 762 1.15923 0.319869 0 -4.0794 
763 1 763 1.15915 0.359875 0 -3.2745 
764 1 764 1.15907 0.399892 0 -2.39856 
765 1 765 1.159 0.439916 0 -1.69485 
766 1 766 1.15894 0.479949 0 -0.868608 
767 1 767 1.15889 0.519988 0 -0.274795 
768 1 768 1.15883 0.560027 0 -0.0369416 
769 1 769 1.15878 0.600068 0 -0.0968089 
770 1 770 1.15872 0.640104 0 -0.647173 
771 1 771 1.15866 0.680141 0 -1.49915 
772 1 772 1.15861 0.720176 0 -2.50927 
773 1 773 1.15855 0.76021 0 -3.19306 
774 1 774 1.1585 0.800243 0 -3.89468 
775 1 775 1.15846 0.840274 0 -4.09008 
776 1 776 1.15842 0.880306 0 -4.11679 
777 1 777 1.1584 0.920337 0 -3.86805 