ITEM: TIMESTEP
0
ITEM: NUMBER OF ATOMS
7127
ITEM: BOX BOUNDS sm sm sm
0 4
0 2
0 0
ITEM: ATOMS id type tag x y z vx 
0 1 0 0 0 0 0 
1 1 1 0 0.04 0 0 
2 1 2 0 0.08 0 0 
3 1 3 0 0.12 0 0 
4 1 4 0 0.16 0 0 
5 1 5 0 0.2 0 0 
6 1 6 0 0.24 0 0 
7 1 7 0 0.28 0 0 
8 1 8 0 0.32 0 0 
9 1 9 0 0.36 0 0 
10 1 10 0 0.4 0 0 
11 1 11 0 0.44 0 0 
12 1 12 0 0.48 0 0 
13 1 13 0 0.52 0 0 
14 1 14 0 0.56 0 0 
15 1 15 0 0.6 0 0 
16 1 16 0 0.64 0 0 
17 1 17 0 0.68 0 0 
18 1 18 0 0.72 0 0 
19 1 19 0 0.76 0 0 
20 1 20 0 0.8 0 0 
21 1 21 0 0.84 0 0 
22 1 22 0 0.88 0 0 
23 1 23 0 0.92 0 0 
24 1 24 0 0.96 0 0 
25 1 25 0 1 0 0 
26 1 26 0.04 0 0 0 
27 1 27 0.0399872 0.0399865 0 0.03449 
28 1 28 0.0399823 0.079981 0 0.0490886 
29 1 29 0.0399802 0.119978 0 -0.0400091 
30 1 30 0.0399774 0.159976 0 -0.086967 
31 1 31 0.0399765 0.199975 0 -0.170953 
32 1 32 0.0399734 0.239976 0 -0.248686 
33 1 33 0.0399695 0.279978 0 -0.323059 
34 1 34 0.0399643 0.31998 0 -0.316809 
35 1 35 0.0399615 0.359982 0 -0.220932 
36 1 36 0.0399575 0.399983 0 -0.209985 
37 1 37 0.0399567 0.439984 0 -0.195564 
38 1 38 0.0399541 0.479985 0 -0.151424 
39 1 39 0.0399561 0.519985 0 -0.0834522 
40 1 40 0.0399539 0.559987 0 0.0215135 
41 1 41 0.039957 0.599987 0 0.107771 
42 1 42 0.0399542 0.639989 0 0.193573 
43 1 43 0.0399567 0.679992 0 0.150426 
44 1 44 0.0399544 0.719996 0 0.0949514 
45 1 45 0.0399554 0.760001 0 -0.0706967 
46 1 46 0.0399539 0.800008 0 -0.205323 
47 1 47 0.0399542 0.840014 0 -0.281503 
48 1 48 0.0399541 0.880025 0 -0.15567 
49 1 49 0.0399475 0.920037 0 0.131483 
50 1 50 0.0399491 0.960051 0 0.562729 
51 1 51 0.039896 1.00011 0 0.946237 
52 1 52 0.08 0 0 0 
53 1 53 0.0799808 0.0399831 0 0.0861682 
54 1 54 0.0799679 0.0799702 0 0.024689 
55 1 55 0.0799613 0.119963 0 -0.159369 
56 1 56 0.0799548 0.159957 0 -0.235204 
57 1 57 0.0799495 0.199955 0 -0.376083 
58 1 58 0.0799425 0.239953 0 -0.458239 
59 1 59 0.0799343 0.279956 0 -0.499429 
60 1 60 0.0799276 0.319958 0 -0.416819 
61 1 61 0.0799211 0.359963 0 -0.245177 
62 1 62 0.0799165 0.399965 0 -0.189761 
63 1 63 0.0799126 0.439969 0 -0.163862 
64 1 64 0.0799113 0.479971 0 -0.180883 
65 1 65 0.079911 0.519975 0 -0.196789 
66 1 66 0.0799119 0.559976 0 -0.0743809 
67 1 67 0.079912 0.59998 0 0.0819663 
68 1 68 0.0799123 0.639981 0 0.283587 
69 1 69 0.0799073 0.679988 0 0.292354 
70 1 70 0.0799084 0.719992 0 0.177846 
71 1 71 0.0799031 0.760004 0 -0.0600946 
72 1 72 0.0799045 0.800014 0 -0.242324 
73 1 73 0.0798993 0.840031 0 -0.252864 
74 1 74 0.0798977 0.880047 0 -0.0476495 
75 1 75 0.0798921 0.920069 0 0.382898 
76 1 76 0.0798703 0.960106 0 1.19911 
77 1 77 0.0798462 1.00012 0 1.85869 
78 1 78 0.12 0 0 0 
79 1 79 0.119976 0.0399809 0 0.131799 
80 1 80 0.119956 0.079965 0 0.00750668 
81 1 81 0.119943 0.119952 0 -0.283173 
82 1 82 0.119932 0.159943 0 -0.42757 
83 1 83 0.119921 0.199937 0 -0.5589 
84 1 84 0.119909 0.239933 0 -0.579476 
85 1 85 0.119897 0.279934 0 -0.583848 
86 1 86 0.119888 0.319935 0 -0.464973 
87 1 87 0.11988 0.359941 0 -0.26118 
88 1 88 0.119875 0.399945 0 -0.122346 
89 1 89 0.119871 0.439951 0 -0.0429898 
90 1 90 0.119869 0.479957 0 -0.0853305 
91 1 91 0.11987 0.519962 0 -0.152456 
92 1 92 0.119869 0.559968 0 -0.0658647 
93 1 93 0.119868 0.599973 0 0.126266 
94 1 94 0.119865 0.639979 0 0.36509 
95 1 95 0.119862 0.679986 0 0.451802 
96 1 96 0.119857 0.719997 0 0.300694 
97 1 97 0.119853 0.760008 0 -0.00358264 
98 1 98 0.119848 0.800026 0 -0.173386 
99 1 99 0.119844 0.840043 0 -0.132628 
100 1 100 0.119839 0.880067 0 0.168891 
101 1 101 0.119824 0.920096 0 0.725824 
102 1 102 0.119811 0.960118 0 1.7717 
103 1 103 0.119793 1.00015 0 2.56425 
104 1 104 0.16 0 0 0 
105 1 105 0.159971 0.0399793 0 0.171796 
106 1 106 0.159946 0.0799613 0 -0.00278373 
107 1 107 0.159926 0.119946 0 -0.39938 
108 1 108 0.159908 0.159933 0 -0.612076 
109 1 109 0.159893 0.199923 0 -0.729407 
110 1 110 0.159876 0.239916 0 -0.760373 
111 1 111 0.15986 0.279914 0 -0.736306 
112 1 112 0.159848 0.319914 0 -0.514863 
113 1 113 0.159838 0.359918 0 -0.223086 
114 1 114 0.159834 0.399924 0 0.0153059 
115 1 115 0.159829 0.439932 0 0.106764 
116 1 116 0.159828 0.47994 0 0.0366925 
117 1 117 0.159827 0.519949 0 -0.00439615 
118 1 118 0.159826 0.559957 0 0.0813216 
119 1 119 0.159825 0.599966 0 0.307179 
120 1 120 0.15982 0.639975 0 0.562595 
121 1 121 0.159811 0.679986 0 0.651382 
122 1 122 0.159803 0.719998 0 0.505267 
123 1 123 0.159795 0.760015 0 0.169999 
124 1 124 0.159789 0.800032 0 0.00419822 
125 1 125 0.159782 0.840057 0 0.0621202 
126 1 126 0.159776 0.88008 0 0.461558 
127 1 127 0.159764 0.920107 0 1.19386 
128 1 128 0.159753 0.960136 0 2.29914 
129 1 129 0.159737 1.00016 0 3.06819 
130 1 130 0.2 0 0 0 
131 1 131 0.199966 0.0399782 0 0.135841 
132 1 132 0.199936 0.0799585 0 -0.0797185 
133 1 133 0.199909 0.119941 0 -0.515073 
134 1 134 0.199887 0.159925 0 -0.804907 
135 1 135 0.199866 0.199912 0 -0.964031 
136 1 136 0.199844 0.239902 0 -1.00295 
137 1 137 0.199825 0.279897 0 -0.864692 
138 1 138 0.19981 0.319895 0 -0.533199 
139 1 139 0.199799 0.359898 0 -0.249244 
140 1 140 0.199794 0.399903 0 0.0388118 
141 1 141 0.199788 0.439912 0 0.167232 
142 1 142 0.199787 0.479921 0 0.147178 
143 1 143 0.199785 0.519934 0 0.149314 
144 1 144 0.199783 0.559945 0 0.230992 
145 1 145 0.199777 0.599959 0 0.45714 
146 1 146 0.19977 0.639972 0 0.740255 
147 1 147 0.199761 0.679987 0 0.864146 
148 1 148 0.199751 0.720003 0 0.74391 
149 1 149 0.199739 0.760022 0 0.479746 
150 1 150 0.19973 0.800042 0 0.381606 
151 1 151 0.199721 0.840065 0 0.491522 
152 1 152 0.199715 0.88009 0 0.947351 
153 1 153 0.199704 0.920116 0 1.71127 
154 1 154 0.199696 0.960142 0 2.65059 
155 1 155 0.19969 1.00017 0 3.25304 
156 1 156 0.24 0 0 0 
157 1 157 0.239961 0.0399764 0 -0.0135559 
158 1 158 0.239926 0.0799536 0 -0.289048 
159 1 159 0.239895 0.119934 0 -0.705013 
160 1 160 0.239867 0.159915 0 -1.03406 
161 1 161 0.239842 0.199901 0 -1.17329 
162 1 162 0.239815 0.239888 0 -1.15594 
163 1 163 0.239793 0.279882 0 -0.978913 
164 1 164 0.239775 0.319879 0 -0.682653 
165 1 165 0.239762 0.359882 0 -0.465649 
166 1 166 0.239754 0.399887 0 -0.131392 
167 1 167 0.239748 0.439897 0 0.0482799 
168 1 168 0.239745 0.479907 0 0.152665 
169 1 169 0.23974 0.519922 0 0.248227 
170 1 170 0.239736 0.559936 0 0.367252 
171 1 171 0.23973 0.599951 0 0.634088 
172 1 172 0.239719 0.639968 0 0.905094 
173 1 173 0.239704 0.679984 0 1.05561 
174 1 174 0.23969 0.720003 0 1.00483 
175 1 175 0.239679 0.760023 0 0.821982 
176 1 176 0.239669 0.800045 0 0.809565 
177 1 177 0.239658 0.84007 0 1.01815 
178 1 178 0.239654 0.880094 0 1.52035 
179 1 179 0.239646 0.920121 0 2.20418 
180 1 180 0.239642 0.960145 0 2.84141 
181 1 181 0.239637 1.00017 0 3.21842 
182 1 182 0.28 0 0 0 
183 1 183 0.279958 0.0399735 0 -0.227031 
184 1 184 0.279919 0.0799478 0 -0.556978 
185 1 185 0.279883 0.119926 0 -0.929294 
186 1 186 0.279851 0.159906 0 -1.30444 
187 1 187 0.27982 0.19989 0 -1.42802 
188 1 188 0.279789 0.239878 0 -1.34617 
189 1 189 0.279763 0.279871 0 -1.1525 
190 1 190 0.27974 0.319868 0 -0.878815 
191 1 191 0.279725 0.35987 0 -0.668903 
192 1 192 0.279715 0.399876 0 -0.331881 
193 1 193 0.279707 0.439885 0 -0.166566 
194 1 194 0.279702 0.479895 0 0.0452339 
195 1 195 0.279695 0.51991 0 0.259101 
196 1 196 0.279688 0.559926 0 0.473056 
197 1 197 0.279677 0.599944 0 0.798389 
198 1 198 0.279665 0.639963 0 1.05396 
199 1 199 0.279652 0.679983 0 1.20037 
200 1 200 0.279638 0.720003 0 1.25553 
201 1 201 0.279621 0.760026 0 1.21481 
202 1 202 0.27961 0.800047 0 1.25298 
203 1 203 0.279601 0.840073 0 1.52803 
204 1 204 0.279595 0.880096 0 2.06666 
205 1 205 0.279588 0.920121 0 2.64571 
206 1 206 0.279589 0.960146 0 2.9669 
207 1 207 0.279591 1.00017 0 3.1189 
208 1 208 0.32 0 0 0 
209 1 209 0.319954 0.0399705 0 -0.392902 
210 1 210 0.319913 0.0799429 0 -0.819865 
211 1 211 0.319874 0.11992 0 -1.20539 
212 1 212 0.319836 0.159898 0 -1.56916 
213 1 213 0.3198 0.199883 0 -1.64161 
214 1 214 0.319765 0.239871 0 -1.53226 
215 1 215 0.319734 0.279864 0 -1.31601 
216 1 216 0.319708 0.319862 0 -1.04656 
217 1 217 0.31969 0.359864 0 -0.90758 
218 1 218 0.319676 0.399869 0 -0.655104 
219 1 219 0.319666 0.439878 0 -0.444062 
220 1 220 0.319658 0.479888 0 -0.0302451 
221 1 221 0.319646 0.519902 0 0.321386 
222 1 222 0.319637 0.559918 0 0.625529 
223 1 223 0.319626 0.599936 0 0.926956 
224 1 224 0.319613 0.639955 0 1.10544 
225 1 225 0.319594 0.679976 0 1.25135 
226 1 226 0.319577 0.719998 0 1.37367 
227 1 227 0.319563 0.760021 0 1.49787 
228 1 228 0.319552 0.800045 0 1.66154 
229 1 229 0.319541 0.84007 0 1.96911 
230 1 230 0.319537 0.880094 0 2.47081 
231 1 231 0.319534 0.92012 0 2.91697 
232 1 232 0.319538 0.960142 0 2.94425 
233 1 233 0.31954 1.00017 0 2.89938 
234 1 234 0.36 0 0 0 
235 1 235 0.359952 0.0399688 0 -0.547364 
236 1 236 0.359907 0.0799403 0 -1.06223 
237 1 237 0.359863 0.119916 0 -1.43474 
238 1 238 0.359821 0.159894 0 -1.73905 
239 1 239 0.35978 0.199879 0 -1.78177 
240 1 240 0.359741 0.239868 0 -1.63884 
241 1 241 0.359705 0.279861 0 -1.3722 
242 1 242 0.359675 0.319859 0 -1.16311 
243 1 243 0.359654 0.35986 0 -1.13973 
244 1 244 0.359637 0.399864 0 -0.930578 
245 1 245 0.359624 0.439872 0 -0.643241 
246 1 246 0.359613 0.479881 0 -0.0836832 
247 1 247 0.3596 0.519894 0 0.398418 
248 1 248 0.359589 0.559909 0 0.836261 
249 1 249 0.359572 0.599929 0 1.14051 
250 1 250 0.359559 0.639949 0 1.24553 
251 1 251 0.359545 0.679973 0 1.35838 
252 1 252 0.359529 0.719995 0 1.50264 
253 1 253 0.35951 0.760019 0 1.69113 
254 1 254 0.359498 0.800042 0 1.92682 
255 1 255 0.359488 0.840067 0 2.25578 
256 1 256 0.359483 0.880091 0 2.68398 
257 1 257 0.35948 0.920115 0 3.04131 
258 1 258 0.359486 0.960139 0 2.89851 
259 1 259 0.359494 1.00016 0 2.72947 
260 1 260 0.4 0 0 0 
261 1 261 0.399949 0.0399685 0 -0.633782 
262 1 262 0.399901 0.0799393 0 -1.1959 
263 1 263 0.399853 0.119914 0 -1.5525 
264 1 264 0.399805 0.159893 0 -1.82708 
265 1 265 0.39976 0.199878 0 -1.87584 
266 1 266 0.399716 0.239866 0 -1.67368 
267 1 267 0.399676 0.27986 0 -1.37616 
268 1 268 0.399643 0.319857 0 -1.2497 
269 1 269 0.399617 0.359858 0 -1.25739 
270 1 270 0.399596 0.399861 0 -1.05447 
271 1 271 0.399582 0.439868 0 -0.736459 
272 1 272 0.399568 0.479877 0 -0.0903435 
273 1 273 0.39955 0.519889 0 0.52827 
274 1 274 0.399537 0.559904 0 1.09814 
275 1 275 0.399523 0.599922 0 1.37394 
276 1 276 0.399509 0.639941 0 1.42955 
277 1 277 0.399488 0.679964 0 1.49089 
278 1 278 0.399471 0.719986 0 1.63727 
279 1 279 0.399455 0.760011 0 1.88871 
280 1 280 0.399443 0.800035 0 2.15204 
281 1 281 0.399431 0.840061 0 2.48312 
282 1 282 0.399428 0.880085 0 2.84171 
283 1 283 0.399429 0.920109 0 3.11375 
284 1 284 0.399434 0.960132 0 2.86541 
285 1 285 0.39944 1.00016 0 2.62946 
286 1 286 0.44 0 0 0 
287 1 287 0.439947 0.0399682 0 -0.699993 
288 1 288 0.439894 0.0799392 0 -1.25931 
289 1 289 0.439841 0.119913 0 -1.57661 
290 1 290 0.439788 0.159894 0 -1.80474 
291 1 291 0.439737 0.199878 0 -1.82732 
292 1 292 0.439689 0.239866 0 -1.58664 
293 1 293 0.439647 0.279859 0 -1.32088 
294 1 294 0.439609 0.319855 0 -1.25248 
295 1 295 0.439581 0.359855 0 -1.27748 
296 1 296 0.439557 0.399858 0 -1.1581 
297 1 297 0.439539 0.439863 0 -0.830022 
298 1 298 0.439521 0.479872 0 -0.0783788 
299 1 299 0.439505 0.519883 0 0.677175 
300 1 300 0.43949 0.559897 0 1.34911 
301 1 301 0.439469 0.599915 0 1.58135 
302 1 302 0.439456 0.639935 0 1.61787 
303 1 303 0.439442 0.67996 0 1.66193 
304 1 304 0.439427 0.719982 0 1.82303 
305 1 305 0.439406 0.760008 0 2.12912 
306 1 306 0.439394 0.800031 0 2.42422 
307 1 307 0.439383 0.840054 0 2.72188 
308 1 308 0.439377 0.880078 0 2.94883 
309 1 309 0.439375 0.920101 0 3.11017 
310 1 310 0.439381 0.960125 0 2.78334 
311 1 311 0.439392 1.00015 0 2.51232 
312 1 312 0.48 0 0 0 
313 1 313 0.479943 0.0399681 0 -0.772482 
314 1 314 0.479886 0.0799396 0 -1.28732 
315 1 315 0.479827 0.119914 0 -1.54634 
316 1 316 0.479769 0.159894 0 -1.71614 
317 1 317 0.479714 0.199878 0 -1.7015 
318 1 318 0.479663 0.239866 0 -1.47214 
319 1 319 0.479617 0.279858 0 -1.25721 
320 1 320 0.479577 0.319853 0 -1.19765 
321 1 321 0.479545 0.359852 0 -1.24375 
322 1 322 0.479516 0.399855 0 -1.21465 
323 1 323 0.479496 0.43986 0 -0.876533 
324 1 324 0.479475 0.479868 0 -0.0870663 
325 1 325 0.479456 0.519879 0 0.733178 
326 1 326 0.479438 0.559892 0 1.4835 
327 1 327 0.479422 0.599908 0 1.7788 
328 1 328 0.479407 0.639926 0 1.90538 
329 1 329 0.479384 0.679948 0 1.92974 
330 1 330 0.479368 0.719971 0 2.10437 
331 1 331 0.479353 0.759996 0 2.43942 
332 1 332 0.479341 0.80002 0 2.71472 
333 1 333 0.479327 0.840045 0 2.97437 
334 1 334 0.479323 0.880068 0 3.0988 
335 1 335 0.479324 0.920092 0 3.18714 
336 1 336 0.479326 0.960116 0 2.85696 
337 1 337 0.479333 1.00014 0 2.60332 
338 1 338 0.52 0 0 0 
339 1 339 0.519939 0.0399676 0 -0.771598 
340 1 340 0.519877 0.0799395 0 -1.24633 
341 1 341 0.519813 0.119914 0 -1.47998 
342 1 342 0.519751 0.159894 0 -1.61622 
343 1 343 0.519691 0.199877 0 -1.59764 
344 1 344 0.519636 0.239865 0 -1.39826 
345 1 345 0.519589 0.279855 0 -1.23018 
346 1 346 0.519545 0.319849 0 -1.18705 
347 1 347 0.519509 0.359846 0 -1.24027 
348 1 348 0.519478 0.399848 0 -1.2184 
349 1 349 0.519453 0.439852 0 -0.842816 
350 1 350 0.519429 0.47986 0 -0.096228 
351 1 351 0.519411 0.51987 0 0.715015 
352 1 352 0.519391 0.559882 0 1.50679 
353 1 353 0.519368 0.599899 0 1.86366 
354 1 354 0.519353 0.639918 0 2.1146 
355 1 355 0.519338 0.679942 0 2.19805 
356 1 356 0.519325 0.719965 0 2.43822 
357 1 357 0.519304 0.75999 0 2.79638 
358 1 358 0.519292 0.800013 0 3.02966 
359 1 359 0.51928 0.840036 0 3.22319 
360 1 360 0.519273 0.880059 0 3.22107 
361 1 361 0.519268 0.920083 0 3.20639 
362 1 362 0.519271 0.960107 0 2.89169 
363 1 363 0.51928 1.00013 0 2.68802 
364 1 364 0.56 0 0 0 
365 1 365 0.559933 0.0399677 0 -0.732614 
366 1 366 0.559867 0.0799397 0 -1.20417 
367 1 367 0.559799 0.119914 0 -1.4261 
368 1 368 0.559731 0.159893 0 -1.52945 
369 1 369 0.559669 0.199875 0 -1.54474 
370 1 370 0.559611 0.239861 0 -1.37918 
371 1 371 0.559561 0.279849 0 -1.22537 
372 1 372 0.559516 0.319842 0 -1.15786 
373 1 373 0.559476 0.359838 0 -1.14162 
374 1 374 0.55944 0.399839 0 -1.09612 
375 1 375 0.559412 0.439843 0 -0.759796 
376 1 376 0.559385 0.479851 0 -0.0963204 
377 1 377 0.559362 0.519861 0 0.719343 
378 1 378 0.55934 0.559872 0 1.54476 
379 1 379 0.559323 0.599888 0 1.94768 
380 1 380 0.559304 0.639905 0 2.27947 
381 1 381 0.559277 0.679927 0 2.42364 
382 1 382 0.559262 0.719951 0 2.73287 
383 1 383 0.559247 0.759976 0 3.07155 
384 1 384 0.559236 0.800001 0 3.23887 
385 1 385 0.55922 0.840026 0 3.39021 
386 1 386 0.559216 0.880048 0 3.32764 
387 1 387 0.559214 0.920072 0 3.26991 
388 1 388 0.559212 0.960097 0 3.04483 
389 1 389 0.559216 1.00013 0 2.93666 
390 1 390 0.6 0 0 0 
391 1 391 0.599929 0.0399672 0 -0.655517 
392 1 392 0.599856 0.0799397 0 -1.14747 
393 1 393 0.599784 0.119914 0 -1.40385 
394 1 394 0.599714 0.159892 0 -1.49584 
395 1 395 0.599647 0.199872 0 -1.52524 
396 1 396 0.599588 0.239855 0 -1.37492 
397 1 397 0.599536 0.279841 0 -1.22127 
398 1 398 0.599488 0.319831 0 -1.10394 
399 1 399 0.599444 0.359825 0 -0.965392 
400 1 400 0.599404 0.399824 0 -0.846872 
401 1 401 0.599371 0.439827 0 -0.547248 
402 1 402 0.599341 0.479834 0 0.0398112 
403 1 403 0.599318 0.519844 0 0.765493 
404 1 404 0.599294 0.559857 0 1.48141 
405 1 405 0.599268 0.599874 0 1.93597 
406 1 406 0.599247 0.639895 0 2.40496 
407 1 407 0.59923 0.679919 0 2.62558 
408 1 408 0.599216 0.719944 0 2.93936 
409 1 409 0.599194 0.759969 0 3.20011 
410 1 410 0.599182 0.799993 0 3.28183 
411 1 411 0.599171 0.840017 0 3.36841 
412 1 412 0.599162 0.880039 0 3.2864 
413 1 413 0.599154 0.920064 0 3.26727 
414 1 414 0.599153 0.960089 0 3.20743 
415 1 415 0.599157 1.00012 0 3.22572 
416 1 416 0.64 0 0 0 
417 1 417 0.639923 0.0399674 0 -0.545109 
418 1 418 0.639846 0.0799394 0 -1.02059 
419 1 419 0.639771 0.119913 0 -1.33378 
420 1 420 0.639696 0.159889 0 -1.46683 
421 1 421 0.639628 0.199867 0 -1.50555 
422 1 422 0.639567 0.239848 0 -1.36055 
423 1 423 0.639512 0.27983 0 -1.1791 
424 1 424 0.639462 0.319818 0 -0.942077 
425 1 425 0.639415 0.359809 0 -0.625911 
426 1 426 0.63937 0.399807 0 -0.398085 
427 1 427 0.639332 0.439809 0 -0.134711 
428 1 428 0.639298 0.479816 0 0.331962 
429 1 429 0.639269 0.519828 0 0.887668 
430 1 430 0.639242 0.559842 0 1.45347 
431 1 431 0.63922 0.599858 0 1.91509 
432 1 432 0.639194 0.639877 0 2.4225 
433 1 433 0.639165 0.6799 0 2.69445 
434 1 434 0.639146 0.719926 0 2.99412 
435 1 435 0.639132 0.759952 0 3.17006 
436 1 436 0.639121 0.799979 0 3.20218 
437 1 437 0.639106 0.840004 0 3.26721 
438 1 438 0.639101 0.880029 0 3.23902 
439 1 439 0.639096 0.920055 0 3.29693 
440 1 440 0.639089 0.960081 0 3.40311 
441 1 441 0.639087 1.00011 0 3.54495 
442 1 442 0.68 0 0 0 
443 1 443 0.679918 0.0399674 0 -0.461272 
444 1 444 0.679835 0.0799387 0 -0.930673 
445 1 445 0.679757 0.119912 0 -1.26796 
446 1 446 0.679681 0.159886 0 -1.37967 
447 1 447 0.67961 0.199861 0 -1.37262 
448 1 448 0.679547 0.239839 0 -1.21253 
449 1 449 0.679492 0.279819 0 -0.964284 
450 1 450 0.679437 0.319803 0 -0.609103 
451 1 451 0.679386 0.359792 0 -0.190071 
452 1 452 0.679337 0.399787 0 0.131077 
453 1 453 0.679292 0.439788 0 0.377377 
454 1 454 0.679254 0.479795 0 0.679411 
455 1 455 0.679224 0.519806 0 1.00955 
456 1 456 0.679192 0.559821 0 1.44369 
457 1 457 0.679159 0.599839 0 1.89041 
458 1 458 0.679132 0.639863 0 2.36312 
459 1 459 0.679113 0.679888 0 2.68121 
460 1 460 0.679095 0.719914 0 2.93458 
461 1 461 0.679075 0.759941 0 2.99722 
462 1 462 0.679063 0.799967 0 2.98774 
463 1 463 0.679052 0.839994 0 3.0354 
464 1 464 0.679042 0.88002 0 3.11223 
465 1 465 0.679031 0.920049 0 3.31402 
466 1 466 0.679026 0.960077 0 3.61496 
467 1 467 0.679024 1.00011 0 3.88003 
468 1 468 0.72 0 0 0 
469 1 469 0.719912 0.0399676 0 -0.375275 
470 1 470 0.719827 0.0799375 0 -0.80113 
471 1 471 0.719746 0.119909 0 -1.10346 
472 1 472 0.719666 0.159882 0 -1.16087 
473 1 473 0.719594 0.199855 0 -1.09117 
474 1 474 0.71953 0.239831 0 -0.928327 
475 1 475 0.719471 0.279808 0 -0.642003 
476 1 476 0.719414 0.319791 0 -0.192322 
477 1 477 0.719359 0.359778 0 0.30095 
478 1 478 0.719303 0.399771 0 0.680658 
479 1 479 0.719253 0.439771 0 0.882177 
480 1 480 0.71921 0.479776 0 1.0399 
481 1 481 0.71917 0.519788 0 1.14986 
482 1 482 0.719136 0.559803 0 1.39808 
483 1 483 0.719106 0.599821 0 1.7921 
484 1 484 0.719074 0.639842 0 2.25586 
485 1 485 0.71904 0.679865 0 2.63579 
486 1 486 0.719018 0.719892 0 2.80577 
487 1 487 0.719007 0.75992 0 2.77298 
488 1 488 0.718995 0.799949 0 2.76324 
489 1 489 0.718981 0.83998 0 2.80392 
490 1 490 0.718974 0.880011 0 2.99509 
491 1 491 0.718966 0.920043 0 3.31836 
492 1 492 0.718956 0.960074 0 3.7635 
493 1 493 0.718947 1.00011 0 4.12417 
494 1 494 0.76 0 0 0 
495 1 495 0.75991 0.0399672 0 -0.270816 
496 1 496 0.759819 0.0799361 0 -0.603898 
497 1 497 0.759735 0.119907 0 -0.852207 
498 1 498 0.759655 0.159878 0 -0.865877 
499 1 499 0.759581 0.199849 0 -0.697458 
500 1 500 0.759513 0.239823 0 -0.502153 
501 1 501 0.759452 0.279799 0 -0.225519 
502 1 502 0.75939 0.31978 0 0.251372 
503 1 503 0.759329 0.359765 0 0.77908 
504 1 504 0.759269 0.399756 0 1.18367 
505 1 505 0.759212 0.439754 0 1.30658 
506 1 506 0.759162 0.479759 0 1.31708 
507 1 507 0.759121 0.519769 0 1.24561 
508 1 508 0.759081 0.559784 0 1.33059 
509 1 509 0.759038 0.599803 0 1.64817 
510 1 510 0.759005 0.639827 0 2.08396 
511 1 511 0.758984 0.679852 0 2.51009 
512 1 512 0.758963 0.719878 0 2.60024 
513 1 513 0.758944 0.759907 0 2.50729 
514 1 514 0.75893 0.799937 0 2.49982 
515 1 515 0.75892 0.83997 0 2.53251 
516 1 516 0.758908 0.880004 0 2.86638 
517 1 517 0.758893 0.920041 0 3.32756 
518 1 518 0.758886 0.960076 0 3.89782 
519 1 519 0.758879 1.00011 0 4.33464 
520 1 520 0.8 0 0 0 
521 1 521 0.799905 0.0399667 0 -0.221359 
522 1 522 0.799813 0.0799337 0 -0.429478 
523 1 523 0.799728 0.119903 0 -0.530861 
524 1 524 0.799644 0.159873 0 -0.437017 
525 1 525 0.799568 0.199844 0 -0.173829 
526 1 526 0.799497 0.239817 0 0.0247789 
527 1 527 0.799431 0.279792 0 0.254223 
528 1 528 0.799365 0.319772 0 0.660761 
529 1 529 0.799299 0.359757 0 1.10301 
530 1 530 0.799233 0.399748 0 1.50399 
531 1 531 0.79917 0.439745 0 1.59822 
532 1 532 0.799115 0.479748 0 1.49952 
533 1 533 0.799063 0.519758 0 1.28324 
534 1 534 0.799019 0.559773 0 1.26806 
535 1 535 0.798982 0.599791 0 1.57282 
536 1 536 0.798945 0.63981 0 1.96817 
537 1 537 0.798907 0.679832 0 2.35384 
538 1 538 0.79888 0.719859 0 2.36738 
539 1 539 0.798869 0.759888 0 2.24701 
540 1 540 0.798853 0.799923 0 2.22738 
541 1 541 0.798839 0.83996 0 2.27751 
542 1 542 0.79883 0.879999 0 2.73712 
543 1 543 0.79882 0.920038 0 3.25203 
544 1 544 0.798808 0.960077 0 3.88683 
545 1 545 0.798793 1.00012 0 4.3827 
546 1 546 0.84 0 0 0 
547 1 547 0.839905 0.0399653 0 -0.0994748 
548 1 548 0.839809 0.0799314 0 -0.17234 
549 1 549 0.839719 0.1199 0 -0.127632 
550 1 550 0.839635 0.159869 0 0.0823077 
551 1 551 0.839556 0.199839 0 0.40185 
552 1 552 0.839481 0.239811 0 0.556775 
553 1 553 0.839411 0.279786 0 0.725995 
554 1 554 0.839338 0.319766 0 1.06438 
555 1 555 0.839267 0.35975 0 1.40336 
556 1 556 0.839197 0.39974 0 1.75109 
557 1 557 0.839127 0.439736 0 1.79654 
558 1 558 0.839065 0.479739 0 1.63151 
559 1 559 0.839012 0.519748 0 1.3405 
560 1 560 0.838962 0.559762 0 1.20299 
561 1 561 0.838911 0.599782 0 1.41567 
562 1 562 0.838873 0.639805 0 1.76961 
563 1 563 0.83885 0.679829 0 2.1643 
564 1 564 0.838824 0.719855 0 2.17828 
565 1 565 0.838801 0.759884 0 2.0498 
566 1 566 0.838782 0.799919 0 2.03392 
567 1 567 0.83877 0.839957 0 2.14257 
568 1 568 0.838754 0.879998 0 2.67088 
569 1 569 0.838737 0.920041 0 3.18968 
570 1 570 0.838729 0.960083 0 3.85678 
571 1 571 0.838718 1.00012 0 4.37716 
572 1 572 0.88 0 0 0 
573 1 573 0.8799 0.0399635 0 0.0461131 
574 1 574 0.879805 0.0799286 0 0.107593 
575 1 575 0.879714 0.119895 0 0.274983 
576 1 576 0.879626 0.159864 0 0.597325 
577 1 577 0.879546 0.199833 0 1.00849 
578 1 578 0.879466 0.239805 0 1.18213 
579 1 579 0.879389 0.27978 0 1.28043 
580 1 580 0.879311 0.31976 0 1.48315 
581 1 581 0.879235 0.359746 0 1.68455 
582 1 582 0.879158 0.399736 0 1.96557 
583 1 583 0.879085 0.439732 0 1.97628 
584 1 584 0.879018 0.479735 0 1.75393 
585 1 585 0.878952 0.519744 0 1.41823 
586 1 586 0.878898 0.55976 0 1.22391 
587 1 587 0.878855 0.599778 0 1.39769 
588 1 588 0.878813 0.639797 0 1.68828 
589 1 589 0.87877 0.679819 0 1.9914 
590 1 590 0.878738 0.719845 0 2.00988 
591 1 591 0.87872 0.759876 0 1.92353 
592 1 592 0.878698 0.799913 0 1.92931 
593 1 593 0.878679 0.839954 0 2.09232 
594 1 594 0.878666 0.879999 0 2.61911 
595 1 595 0.878654 0.920043 0 3.10452 
596 1 596 0.878641 0.960088 0 3.75359 
597 1 597 0.878624 1.00013 0 4.24452 
598 1 598 0.92 0 0 0 
599 1 599 0.9199 0.0399614 0 0.200274 
600 1 600 0.919801 0.0799254 0 0.443279 
601 1 601 0.919707 0.119891 0 0.771338 
602 1 602 0.919619 0.159858 0 1.19341 
603 1 603 0.919535 0.199828 0 1.63514 
604 1 604 0.91945 0.239799 0 1.79654 
605 1 605 0.919368 0.279774 0 1.83152 
606 1 606 0.919284 0.319754 0 1.92355 
607 1 607 0.919202 0.359739 0 2.00764 
608 1 608 0.919122 0.39973 0 2.21881 
609 1 609 0.919042 0.439725 0 2.21548 
610 1 610 0.918968 0.479729 0 1.95089 
611 1 611 0.918902 0.519738 0 1.59543 
612 1 612 0.918841 0.559754 0 1.33899 
613 1 613 0.918783 0.599775 0 1.39983 
614 1 614 0.91874 0.6398 0 1.60072 
615 1 615 0.918714 0.679825 0 1.83217 
616 1 616 0.918682 0.719851 0 1.89693 
617 1 617 0.918648 0.759882 0 1.92026 
618 1 618 0.918621 0.799918 0 2.04617 
619 1 619 0.918604 0.839959 0 2.27983 
620 1 620 0.918582 0.880004 0 2.70302 
621 1 621 0.918564 0.920051 0 3.07076 
622 1 622 0.918554 0.960097 0 3.60113 
623 1 623 0.918542 1.00014 0 3.9927 
624 1 624 0.96 0 0 0 
625 1 625 0.959896 0.0399596 0 0.428693 
626 1 626 0.959797 0.0799215 0 0.808834 
627 1 627 0.959702 0.119886 0 1.22393 
628 1 628 0.959611 0.159852 0 1.75206 
629 1 629 0.959525 0.199821 0 2.2606 
630 1 630 0.959436 0.239792 0 2.46937 
631 1 631 0.959347 0.279769 0 2.49354 
632 1 632 0.959257 0.319749 0 2.496 
633 1 633 0.95917 0.359735 0 2.46086 
634 1 634 0.959083 0.399727 0 2.54682 
635 1 635 0.959 0.439723 0 2.5081 
636 1 636 0.958921 0.479726 0 2.22663 
637 1 637 0.958843 0.519736 0 1.87007 
638 1 638 0.958777 0.559753 0 1.55639 
639 1 639 0.958729 0.599773 0 1.48418 
640 1 640 0.95868 0.639795 0 1.59038 
641 1 641 0.958631 0.679819 0 1.76239 
642 1 642 0.958592 0.719848 0 1.86476 
643 1 643 0.958564 0.75988 0 1.9564 
644 1 644 0.958533 0.799919 0 2.18888 
645 1 645 0.958505 0.839962 0 2.49885 
646 1 646 0.958487 0.880009 0 2.81866 
647 1 647 0.958474 0.920056 0 3.06535 
648 1 648 0.958459 0.960105 0 3.44023 
649 1 649 0.958442 1.00015 0 3.70871 
650 1 650 1 0 0 0 
651 1 651 0.999896 0.0399579 0 0.665474 
652 1 652 0.999794 0.0799185 0 1.20069 
653 1 653 0.999698 0.119881 0 1.71312 
654 1 654 0.999606 0.159846 0 2.33273 
655 1 655 0.999515 0.199814 0 2.86186 
656 1 656 0.99942 0.239786 0 3.1005 
657 1 657 0.999326 0.279763 0 3.11095 
658 1 658 0.999231 0.319744 0 3.03591 
659 1 659 0.999138 0.359729 0 2.94422 
660 1 660 0.999048 0.399721 0 2.93603 
661 1 661 0.998958 0.439717 0 2.84719 
662 1 662 0.998871 0.479722 0 2.52452 
663 1 663 0.998793 0.519732 0 2.17844 
664 1 664 0.99872 0.559748 0 1.85454 
665 1 665 0.998654 0.59977 0 1.63083 
666 1 666 0.998605 0.639798 0 1.55894 
667 1 667 0.998573 0.679826 0 1.6073 
668 1 668 0.998533 0.719856 0 1.76303 
669 1 669 0.998488 0.759889 0 2.00478 
670 1 670 0.998453 0.799927 0 2.37008 
671 1 671 0.998426 0.839969 0 2.68324 
672 1 672 0.998398 0.880016 0 2.87251 
673 1 673 0.998377 0.920065 0 3.01268 
674 1 674 0.998365 0.960114 0 3.19372 
675 1 675 0.998354 1.00016 0 3.31113 
676 1 676 1.04 0 0 0 
677 1 677 1.03989 0.0399574 0 0.903714 
678 1 678 1.03979 0.0799157 0 1.60896 
679 1 679 1.03969 0.119876 0 2.20609 
680 1 680 1.0396 0.15984 0 2.86506 
681 1 681 1.0395 0.199809 0 3.34956 
682 1 682 1.03941 0.239781 0 3.59861 
683 1 683 1.0393 0.279759 0 3.62936 
684 1 684 1.0392 0.319741 0 3.50424 
685 1 685 1.03911 0.359728 0 3.34249 
686 1 686 1.03901 0.399721 0 3.21579 
687 1 687 1.03891 0.439718 0 3.12498 
688 1 688 1.03882 0.479722 0 2.84142 
689 1 689 1.03873 0.519731 0 2.5058 
690 1 690 1.03865 0.559749 0 2.15133 
691 1 691 1.0386 0.599769 0 1.8145 
692 1 692 1.03854 0.639793 0 1.58754 
693 1 693 1.03848 0.67982 0 1.46887 
694 1 694 1.03844 0.719852 0 1.61485 
695 1 695 1.0384 0.759888 0 1.96327 
696 1 696 1.03836 0.799928 0 2.43838 
697 1 697 1.03832 0.839973 0 2.77237 
698 1 698 1.0383 0.880021 0 2.8744 
699 1 699 1.03828 0.92007 0 2.91515 
700 1 700 1.03826 0.960122 0 2.94483 
701 1 701 1.03825 1.00017 0 2.96396 
702 1 702 1.08 0 0 0 
703 1 703 1.07989 0.0399564 0 1.05771 
704 1 704 1.07979 0.079914 0 1.90407 
705 1 705 1.07969 0.119874 0 2.56802 
706 1 706 1.07959 0.159837 0 3.25455 
707 1 707 1.07949 0.199806 0 3.71244 
708 1 708 1.07939 0.239779 0 3.95059 
709 1 709 1.07928 0.279758 0 3.97452 
710 1 710 1.07917 0.319741 0 3.82869 
711 1 711 1.07907 0.359729 0 3.64616 
712 1 712 1.07897 0.399722 0 3.45032 
713 1 713 1.07887 0.439719 0 3.36837 
714 1 714 1.07877 0.479724 0 3.11069 
715 1 715 1.07868 0.519733 0 2.83094 
716 1 716 1.07859 0.559748 0 2.51159 
717 1 717 1.07851 0.599768 0 2.03125 
718 1 718 1.07846 0.639796 0 1.6063 
719 1 719 1.07842 0.679826 0 1.37888 
720 1 720 1.07837 0.719859 0 1.5119 
721 1 721 1.07832 0.759895 0 1.85 
722 1 722 1.07827 0.799936 0 2.35572 
723 1 723 1.07824 0.839979 0 2.73516 
724 1 724 1.0782 0.880027 0 2.79616 
725 1 725 1.07817 0.920078 0 2.71966 
726 1 726 1.07816 0.960129 0 2.59841 
727 1 727 1.07815 1.00018 0 2.54341 
728 1 728 1.12 0 0 0 
729 1 729 1.11989 0.0399576 0 1.14239 
730 1 730 1.11979 0.0799142 0 2.15667 
731 1 731 1.11969 0.119874 0 2.90421 
732 1 732 1.11959 0.159838 0 3.54039 
733 1 733 1.11948 0.199807 0 3.88369 
734 1 734 1.11937 0.239782 0 4.05799 
735 1 735 1.11926 0.279762 0 4.06817 
736 1 736 1.11914 0.319747 0 3.92947 
737 1 737 1.11903 0.359736 0 3.78363 
738 1 738 1.11892 0.399731 0 3.57929 
739 1 739 1.11882 0.43973 0 3.50584 
740 1 740 1.11871 0.479733 0 3.2954 
741 1 741 1.11861 0.519741 0 3.11458 
742 1 742 1.11852 0.559755 0 2.85032 
743 1 743 1.11845 0.599772 0 2.30126 
744 1 744 1.11839 0.639794 0 1.73763 
745 1 745 1.11832 0.679821 0 1.35134 
746 1 746 1.11826 0.719856 0 1.42157 
747 1 747 1.11822 0.759894 0 1.78148 
748 1 748 1.11817 0.799937 0 2.27393 
749 1 749 1.11812 0.839982 0 2.58935 
750 1 750 1.11809 0.88003 0 2.5979 
751 1 751 1.11807 0.920081 0 2.49799 
752 1 752 1.11805 0.960135 0 2.37632 
753 1 753 1.11804 1.00019 0 2.3265 
754 1 754 1.16 0 0 0 
755 1 755 1.1599 0.0399583 0 1.11871 
756 1 756 1.15979 0.0799163 0 2.20545 
757 1 757 1.15968 0.119877 0 3.03719 
758 1 758 1.15958 0.159842 0 3.64269 
759 1 759 1.15946 0.199813 0 3.88877 
760 1 760 1.15935 0.239789 0 4.04032 
761 1 761 1.15923 0.27977 0 4.0625 
762 1 762 1.15911 0.319757 0 3.93187 
763 1 763 1.15899 0.359747 0 3.82035 
764 1 764 1.15887 0.399742 0 3.61122 
765 1 765 1.15876 0.439741 0 3.57064 
766 1 766 1.15865 0.479746 0 3.46358 
767 1 767 1.15855 0.519753 0 3.3818 
768 1 768 1.15846 0.559764 0 3.16216 
769 1 769 1.15837 0.599779 0 2.59908 
770 1 770 1.1583 0.639804 0 1.91544 
771 1 771 1.15825 0.679832 0 1.36548 
772 1 772 1.15819 0.719866 0 1.37049 
773 1 773 1.15813 0.759903 0 1.73174 
774 1 774 1.15808 0.799946 0 2.2092 
775 1 775 1.15804 0.839989 0 2.50811 
776 1 776 1.15799 0.880037 0 2.47733 
777 1 777 1.15796 0.920088 0 2.29128 
778 1 778 1.15794 0.960141 0 2.08774 
779 1 779 1.15793 1.0002 0 1.9973 
780 1 780 1.2 0 0 0 
781 1 781 1.1999 0.0399599 0 0.986963 
782 1 782 1.19979 0.0799198 0 2.14186 
783 1 783 1.19968 0.119883 0 3.10564 
784 1 784 1.19956 0.159851 0 3.7053 
785 1 785 1.19945 0.199823 0 3.8837 
786 1 786 1.19932 0.239801 0 3.98912 
787 1 787 1.1992 0.279783 0 4.012 
788 1 788 1.19907 0.31977 0 3.92731 