ITEM: TIMESTEP
0
ITEM: NUMBER OF ATOMS
6875
ITEM: BOX BOUNDS sm sm sm
0 4
0 2
0 0
ITEM: ATOMS id type tag x y z damage s11 s22 s33 s12 s13 s23 vx T ienergy 
1 1 1 0.0199958 0.0199982 0 0 -0.0579599 -0.0502983 -0.0346875 -0.0194405 0 0 -0.27576 0 0 
2 1 2 0.0199913 0.0599952 0 0 -0.112429 -0.0623644 -0.0560135 -0.023723 0 0 -0.461497 0 0 
3 1 3 0.0199895 0.0999946 0 0 -0.141823 -0.0710171 -0.0682183 -0.0270161 0 0 -0.40563 0 0 
4 1 4 0.0199901 0.139993 0 0 -0.155133 -0.0787572 -0.0749722 -0.0262465 0 0 -0.210037 0 0 
5 1 5 0.0199897 0.179993 0 0 -0.15369 -0.0756683 -0.0735165 -0.0299672 0 0 -0.116861 0 0 
6 1 6 0.0199895 0.219992 0 0 -0.160719 -0.0815342 -0.0776524 -0.0336371 0 0 -0.08452 0 0 
7 1 7 0.0199889 0.259992 0 0 -0.159321 -0.0759269 -0.0754042 -0.0341314 0 0 -0.0874321 0 0 
8 1 8 0.019989 0.299991 0 0 -0.16703 -0.0852001 -0.0808494 -0.0389512 0 0 -0.0489804 0 0 
9 1 9 0.0199878 0.339991 0 0 -0.170017 -0.0786633 -0.0797097 -0.039128 0 0 -0.175244 0 0 
10 1 10 0.0199882 0.379991 0 0 -0.170238 -0.0829609 -0.0811576 -0.038283 0 0 -0.25956 0 0 
11 1 11 0.019987 0.419991 0 0 -0.167808 -0.0760734 -0.0781681 -0.0402375 0 0 -0.450329 0 0 
12 1 12 0.0199864 0.459991 0 0 -0.163434 -0.0768821 -0.077026 -0.0351116 0 0 -0.858194 0 0 
13 1 13 0.0199851 0.499992 0 0 -0.146324 -0.0653253 -0.0678306 -0.0354397 0 0 -0.927028 0 0 
14 1 14 0.0199832 0.539992 0 0 -0.136002 -0.0678098 -0.0653185 -0.0338256 0 0 -1.09468 0 0 
15 1 15 0.0199782 0.579992 0 0 -0.12028 -0.0603196 -0.0578756 -0.0376578 0 0 -0.99354 0 0 
16 1 16 0.0199735 0.61999 0 0 -0.112305 -0.0647796 -0.0567494 -0.0422409 0 0 -1.19482 0 0 
17 1 17 0.0199697 0.659989 0 0 -0.114124 -0.0569223 -0.0548143 -0.0532607 0 0 -1.03292 0 0 
18 1 18 0.0199714 0.699988 0 0 -0.123277 -0.0598516 -0.0586891 -0.0497058 0 0 -1.25842 0 0 
19 1 19 0.0199743 0.739989 0 0 -0.130897 -0.0515839 -0.0584804 -0.0532979 0 0 -0.809174 0 0 
20 1 20 0.0199779 0.77999 0 0 -0.153075 -0.0547365 -0.0666039 -0.0405647 0 0 -0.759208 0 0 
21 1 21 0.0199802 0.819994 0 0 -0.162059 -0.0580159 -0.070536 -0.0272051 0 0 -0.698322 0 0 
22 1 22 0.019985 0.859996 0 0 -0.151787 -0.0580569 -0.0672549 -0.0114684 0 0 -0.717412 0 0 
23 1 23 0.0199871 0.899999 0 0 -0.141622 -0.0468939 -0.0604136 -0.0067808 0 0 -0.342238 0 0 
24 1 24 0.0199904 0.94 0 0 -0.127517 -0.0632758 -0.0611521 0.0114047 0 0 -0.741243 0 0 
25 1 25 0.0199931 0.980003 0 0 -0.0545446 -0.022664 -0.0347062 -0.0034833 0 0 -0.251799 0 0 
26 1 26 0.0599927 0.0199953 0 0 -0.0712946 -0.0908172 -0.0519521 -0.0367712 0 0 -0.430174 0 0 
27 1 27 0.0599833 0.0599879 0 0 -0.111165 -0.0827269 -0.0621425 -0.0266545 0 0 -0.776591 0 0 
28 1 28 0.0599759 0.0999848 0 0 -0.128474 -0.0724708 -0.0644017 -0.0264617 0 0 -0.888591 0 0 
29 1 29 0.0599738 0.139982 0 0 -0.141391 -0.0830915 -0.0719493 -0.0194143 0 0 -0.811481 0 0 
30 1 30 0.0599727 0.179981 0 0 -0.14371 -0.0761214 -0.0704619 -0.0246455 0 0 -0.460276 0 0 
31 1 31 0.0599728 0.219979 0 0 -0.152457 -0.0886658 -0.0772935 -0.0263292 0 0 -0.243501 0 0 
32 1 32 0.0599715 0.259977 0 0 -0.148291 -0.0713692 -0.0704093 -0.0272813 0 0 0.0360765 0 0 
33 1 33 0.0599716 0.299976 0 0 -0.164234 -0.0958365 -0.0833698 -0.0315054 0 0 0.276991 0 0 
34 1 34 0.0599693 0.339974 0 0 -0.160243 -0.0709014 -0.0740901 -0.0335066 0 0 0.172382 0 0 
35 1 35 0.0599702 0.379974 0 0 -0.172687 -0.0888965 -0.0838532 -0.0263746 0 0 0.047352 0 0 
36 1 36 0.0599698 0.419974 0 0 -0.167514 -0.0703086 -0.0762288 -0.0352171 0 0 0.214633 0 0 
37 1 37 0.0599727 0.459975 0 0 -0.167048 -0.0786921 -0.0787717 -0.0189696 0 0 0.236754 0 0 
38 1 38 0.0599768 0.499975 0 0 -0.152847 -0.0653471 -0.0699352 -0.0289117 0 0 1.05009 0 0 
39 1 39 0.0599835 0.539974 0 0 -0.143202 -0.0807797 -0.0717913 -0.0185585 0 0 0.992401 0 0 
40 1 40 0.0599925 0.579972 0 0 -0.117723 -0.0684593 -0.0596673 -0.0336927 0 0 1.54025 0 0 
41 1 41 0.060001 0.619969 0 0 -0.117885 -0.0880993 -0.0660192 -0.0325065 0 0 1.32077 0 0 
42 1 42 0.0600028 0.659965 0 0 -0.11131 -0.0666064 -0.0570166 -0.0592565 0 0 1.82431 0 0 
43 1 43 0.0599971 0.699964 0 0 -0.143405 -0.0745559 -0.069861 -0.0520188 0 0 1.07435 0 0 
44 1 44 0.0599891 0.739965 0 0 -0.155877 -0.0493936 -0.0657899 -0.0641937 0 0 0.859417 0 0 
45 1 45 0.0599795 0.77997 0 0 -0.176343 -0.0467627 -0.0715099 -0.0554319 0 0 0.723907 0 0 
46 1 46 0.059974 0.819977 0 0 -0.17621 -0.0382608 -0.0687374 -0.0441184 0 0 0.00584442 0 0 
47 1 47 0.0599725 0.859984 0 0 -0.176905 -0.0419783 -0.0701599 -0.0309175 0 0 -0.147778 0 0 
48 1 48 0.0599739 0.899989 0 0 -0.143125 -0.0352674 -0.0571621 -0.0278675 0 0 -0.625981 0 0 
49 1 49 0.0599777 0.939994 0 0 -0.111521 -0.0278265 -0.0446517 -0.0100265 0 0 -1.29204 0 0 
50 1 50 0.0599833 0.979999 0 0 -0.076855 -0.00665577 -0.0267566 -0.0195937 0 0 -0.742032 0 0 
51 1 51 0.0999866 0.0199934 0 0 -0.0749691 -0.112834 -0.0602042 -0.0530363 0 0 -0.614516 0 0 
52 1 52 0.0999683 0.0599841 0 0 -0.101792 -0.0940163 -0.0627636 -0.0325219 0 0 -1.25642 0 0 
53 1 53 0.0999592 0.0999778 0 0 -0.119692 -0.0830068 -0.0649662 -0.0277219 0 0 -1.22065 0 0 
54 1 54 0.0999565 0.139974 0 0 -0.135028 -0.0884792 -0.07164 -0.0186509 0 0 -1.41323 0 0 
55 1 55 0.0999547 0.17997 0 0 -0.138296 -0.0798333 -0.0699189 -0.025074 0 0 -1.13712 0 0 
56 1 56 0.0999534 0.219968 0 0 -0.145705 -0.0915559 -0.0760571 -0.0219696 0 0 -1.07041 0 0 
57 1 57 0.099952 0.259965 0 0 -0.140229 -0.0720212 -0.0680362 -0.0279449 0 0 -0.467893 0 0 
58 1 58 0.0999507 0.299964 0 0 -0.156277 -0.0945137 -0.0803974 -0.0264854 0 0 -0.0823167 0 0 
59 1 59 0.0999475 0.339961 0 0 -0.151157 -0.0726204 -0.0717321 -0.0340441 0 0 -0.0723881 0 0 
60 1 60 0.0999463 0.379962 0 0 -0.165149 -0.0823873 -0.0793507 -0.0223105 0 0 -0.375295 0 0 
61 1 61 0.0999447 0.419961 0 0 -0.161672 -0.0731598 -0.0752729 -0.0346098 0 0 -0.578755 0 0 
62 1 62 0.0999453 0.459962 0 0 -0.152034 -0.0684075 -0.0706589 -0.0128966 0 0 -1.15048 0 0 
63 1 63 0.0999483 0.499962 0 0 -0.135175 -0.0690998 -0.0654735 -0.0284982 0 0 -0.696332 0 0 
64 1 64 0.0999507 0.53996 0 0 -0.119744 -0.0733881 -0.0618975 -0.0126365 0 0 -0.817604 0 0 
65 1 65 0.0999526 0.579956 0 0 -0.100216 -0.079058 -0.0574511 -0.0313803 0 0 -0.411711 0 0 
66 1 66 0.0999493 0.619951 0 0 -0.0986819 -0.0822483 -0.0579844 -0.0339933 0 0 -0.858672 0 0 
67 1 67 0.0999451 0.659945 0 0 -0.100795 -0.0806672 -0.0581536 -0.0569682 0 0 -1.10957 0 0 
68 1 68 0.0999391 0.699941 0 0 -0.113477 -0.062951 -0.0565408 -0.0638282 0 0 -1.06481 0 0 
69 1 69 0.0999344 0.739942 0 0 -0.149825 -0.0501777 -0.0641023 -0.0696725 0 0 -1.30684 0 0 
70 1 70 0.0999306 0.779947 0 0 -0.1614 -0.0354608 -0.0630954 -0.0639516 0 0 -0.844618 0 0 
71 1 71 0.0999317 0.819954 0 0 -0.170517 -0.0300489 -0.0642816 -0.0477136 0 0 -1.02869 0 0 
72 1 72 0.0999375 0.859963 0 0 -0.15793 -0.0154824 -0.0555808 -0.0422885 0 0 -0.866139 0 0 
73 1 73 0.099946 0.899971 0 0 -0.152898 -0.0355254 -0.060385 -0.0229306 0 0 -1.96809 0 0 
74 1 74 0.0999574 0.939977 0 0 -0.114794 -0.00880141 -0.0395995 -0.0230639 0 0 -2.31689 0 0 
75 1 75 0.0999668 0.979984 0 0 -0.113989 -0.0161884 -0.0417132 -0.0216827 0 0 -1.60145 0 0 
76 1 76 0.139986 0.0199926 0 0 -0.0772217 -0.127562 -0.0656477 -0.0646674 0 0 -0.393748 0 0 
77 1 77 0.139964 0.0599806 0 0 -0.0973608 -0.105523 -0.0650319 -0.040752 0 0 -1.1434 0 0 
78 1 78 0.13995 0.0999717 0 0 -0.112608 -0.100092 -0.068183 -0.0323837 0 0 -1.48175 0 0 
79 1 79 0.139944 0.139966 0 0 -0.120043 -0.0897019 -0.0672313 -0.0229847 0 0 -1.98903 0 0 
80 1 80 0.139941 0.179961 0 0 -0.125188 -0.0809109 -0.0660607 -0.027298 0 0 -1.54278 0 0 
81 1 81 0.13994 0.219957 0 0 -0.132365 -0.0880272 -0.0706455 -0.022925 0 0 -1.36446 0 0 
82 1 82 0.139938 0.259954 0 0 -0.13368 -0.0783592 -0.0679673 -0.0321123 0 0 -0.601126 0 0 
83 1 83 0.139935 0.299951 0 0 -0.143563 -0.0849771 -0.073262 -0.0299304 0 0 -0.0509711 0 0 
84 1 84 0.139932 0.339949 0 0 -0.147442 -0.0837586 -0.074116 -0.0385556 0 0 0.0904272 0 0 
85 1 85 0.13993 0.379947 0 0 -0.150922 -0.0729446 -0.0717592 -0.0304822 0 0 0.0749197 0 0 
86 1 86 0.139929 0.419946 0 0 -0.156361 -0.0816688 -0.0762991 -0.0362505 0 0 0.0641757 0 0 
87 1 87 0.139933 0.459945 0 0 -0.151327 -0.0715627 -0.0714425 -0.0202599 0 0 0.244841 0 0 
88 1 88 0.139942 0.499944 0 0 -0.151392 -0.0860864 -0.0761235 -0.0253382 0 0 1.03244 0 0 
89 1 89 0.139954 0.539941 0 0 -0.13229 -0.0844073 -0.0694556 -0.0136121 0 0 1.33336 0 0 
90 1 90 0.139969 0.579937 0 0 -0.125722 -0.0963297 -0.0711718 -0.0234049 0 0 1.61314 0 0 
91 1 91 0.139979 0.61993 0 0 -0.12113 -0.0976758 -0.0701327 -0.038312 0 0 1.73954 0 0 
92 1 92 0.139978 0.659925 0 0 -0.138105 -0.0964048 -0.0751697 -0.0543857 0 0 1.44512 0 0 
93 1 93 0.139967 0.699921 0 0 -0.152928 -0.0953081 -0.0795765 -0.068011 0 0 1.33524 0 0 
94 1 94 0.139947 0.73992 0 0 -0.160799 -0.057506 -0.069975 -0.0759884 0 0 1.1267 0 0 
95 1 95 0.139931 0.779925 0 0 -0.185844 -0.053661 -0.0767781 -0.0612052 0 0 0.6047 0 0 
96 1 96 0.139923 0.819932 0 0 -0.184449 -0.0343488 -0.0701322 -0.0467189 0 0 0.22945 0 0 
97 1 97 0.139923 0.859941 0 0 -0.17277 -0.0159002 -0.0604688 -0.0291782 0 0 -0.222464 0 0 
98 1 98 0.13993 0.899951 0 0 -0.154756 -0.02422 -0.0573535 -0.0139026 0 0 -1.63681 0 0 
99 1 99 0.139941 0.939959 0 0 -0.139141 -0.00421239 -0.0459441 -0.00693204 0 0 -2.22366 0 0 
100 1 100 0.13995 0.979969 0 0 -0.130093 -0.00287336 -0.0426122 -0.0164435 0 0 -2.05794 0 0 
101 1 101 0.179982 0.019992 0 0 -0.0719093 -0.135449 -0.0664616 -0.0735389 0 0 -0.345149 0 0 
102 1 102 0.179954 0.0599774 0 0 -0.088126 -0.121583 -0.0672187 -0.0515782 0 0 -1.10962 0 0 
103 1 103 0.179938 0.0999656 0 0 -0.109832 -0.116723 -0.0726293 -0.038358 0 0 -1.57006 0 0 
104 1 104 0.179931 0.139957 0 0 -0.119485 -0.101852 -0.0709519 -0.0300542 0 0 -2.21257 0 0 
105 1 105 0.179926 0.179951 0 0 -0.118789 -0.0856398 -0.0655256 -0.0305665 0 0 -2.11823 0 0 
106 1 106 0.179924 0.219946 0 0 -0.122172 -0.0903324 -0.0681118 -0.0290174 0 0 -2.00761 0 0 
107 1 107 0.179921 0.259941 0 0 -0.121494 -0.0789727 -0.064252 -0.0387218 0 0 -1.16228 0 0 
108 1 108 0.179918 0.299938 0 0 -0.124689 -0.080112 -0.0656474 -0.0359783 0 0 -0.469309 0 0 
109 1 109 0.179914 0.339935 0 0 -0.127085 -0.0788349 -0.0660092 -0.0445967 0 0 -0.210214 0 0 
110 1 110 0.17991 0.379932 0 0 -0.132864 -0.0778433 -0.0675398 -0.0396252 0 0 -0.342665 0 0 
111 1 111 0.179907 0.41993 0 0 -0.132339 -0.0742849 -0.0662249 -0.041377 0 0 -0.783155 0 0 
112 1 112 0.17991 0.459928 0 0 -0.12911 -0.0788709 -0.0666603 -0.0296583 0 0 -0.946695 0 0 
113 1 113 0.179915 0.499925 0 0 -0.115007 -0.0663158 -0.0581118 -0.0298187 0 0 -0.658901 0 0 
114 1 114 0.179923 0.539922 0 0 -0.113587 -0.0879919 -0.0646063 -0.0195997 0 0 -0.473258 0 0 
115 1 115 0.179929 0.579917 0 0 -0.102876 -0.0724974 -0.0562025 -0.0327192 0 0 -0.214175 0 0 
116 1 116 0.179927 0.619912 0 0 -0.109844 -0.096084 -0.0660042 -0.0416419 0 0 -0.645194 0 0 
117 1 117 0.17992 0.659906 0 0 -0.0923029 -0.0616139 -0.0493229 -0.0660086 0 0 -0.918448 0 0 
118 1 118 0.179908 0.699903 0 0 -0.119801 -0.0773529 -0.0631924 -0.0699139 0 0 -1.26066 0 0 
119 1 119 0.179895 0.739901 0 0 -0.129403 -0.0552955 -0.0591963 -0.0818248 0 0 -0.91967 0 0 
120 1 120 0.179883 0.779905 0 0 -0.133259 -0.0270615 -0.0513807 -0.0605477 0 0 -0.796542 0 0 
121 1 121 0.179881 0.819911 0 0 -0.154126 -0.0269549 -0.0580343 -0.0467909 0 0 -0.889503 0 0 
122 1 122 0.179886 0.859921 0 0 -0.146335 0.00624457 -0.0448861 -0.023626 0 0 -1.17698 0 0 
123 1 123 0.1799 0.899932 0 0 -0.147617 -0.00353552 -0.048431 -0.00160484 0 0 -2.35955 0 0 
124 1 124 0.179915 0.939944 0 0 -0.139368 0.020198 -0.0381979 -0.00607744 0 0 -2.5853 0 0 
125 1 125 0.179926 0.979956 0 0 -0.140808 -0.0105124 -0.0485041 -0.0011105 0 0 -3.12247 0 0 
126 1 126 0.219983 0.0199909 0 0 -0.0727453 -0.148342 -0.0708666 -0.0775486 0 0 0.0863488 0 0 
127 1 127 0.219954 0.0599735 0 0 -0.081423 -0.14194 -0.0715945 -0.0608613 0 0 -0.46114 0 0 
128 1 128 0.219934 0.099958 0 0 -0.0925776 -0.12826 -0.0707897 -0.0471973 0 0 -1.46843 0 0 
129 1 129 0.219922 0.139947 0 0 -0.102922 -0.109564 -0.0681113 -0.0401332 0 0 -2.39523 0 0 
130 1 130 0.219916 0.179938 0 0 -0.113839 -0.0978636 -0.0678579 -0.0385359 0 0 -2.5651 0 0 
131 1 131 0.219913 0.219931 0 0 -0.119101 -0.0950013 -0.068622 -0.0362889 0 0 -2.39044 0 0 
132 1 132 0.21991 0.259926 0 0 -0.114633 -0.0812074 -0.0627637 -0.046197 0 0 -1.45724 0 0 
133 1 133 0.219907 0.299922 0 0 -0.111553 -0.0796974 -0.0612973 -0.0403639 0 0 -0.784108 0 0 
134 1 134 0.219903 0.339917 0 0 -0.108122 -0.0750857 -0.0587238 -0.0534959 0 0 -0.0928994 0 0 
135 1 135 0.219899 0.379913 0 0 -0.114964 -0.0823822 -0.0632579 -0.0469186 0 0 -0.0135246 0 0 
136 1 136 0.219898 0.419909 0 0 -0.110442 -0.0704239 -0.0579685 -0.0451993 0 0 0.0425931 0 0 
137 1 137 0.219902 0.459905 0 0 -0.125788 -0.088499 -0.0686886 -0.0329383 0 0 0.461168 0 0 
138 1 138 0.219912 0.499901 0 0 -0.125444 -0.0776268 -0.065093 -0.0288781 0 0 1.02059 0 0 
139 1 139 0.219928 0.539897 0 0 -0.134855 -0.0978559 -0.0745969 -0.017923 0 0 1.35302 0 0 
140 1 140 0.219944 0.579892 0 0 -0.130485 -0.0851751 -0.0691278 -0.0339494 0 0 1.77149 0 0 
141 1 141 0.219954 0.619888 0 0 -0.146453 -0.0951653 -0.0774558 -0.0445939 0 0 1.70852 0 0 
142 1 142 0.219952 0.659885 0 0 -0.160849 -0.0963468 -0.0824503 -0.0702057 0 0 1.77299 0 0 
143 1 143 0.219935 0.699884 0 0 -0.153209 -0.0677231 -0.0708177 -0.0805981 0 0 1.66315 0 0 
144 1 144 0.21991 0.739885 0 0 -0.170967 -0.0825639 -0.0812744 -0.0848481 0 0 1.57343 0 0 
145 1 145 0.219888 0.779887 0 0 -0.155873 -0.0379998 -0.0621366 -0.0600896 0 0 1.12825 0 0 
146 1 146 0.219875 0.819894 0 0 -0.15441 -0.0253962 -0.0576221 -0.0479093 0 0 0.958622 0 0 
147 1 147 0.219873 0.859903 0 0 -0.157304 -0.00199295 -0.0510456 -0.0179509 0 0 0.0709988 0 0 
148 1 148 0.219882 0.899917 0 0 -0.160115 0.0177649 -0.0456072 -0.00275065 0 0 -1.44826 0 0 
149 1 149 0.219893 0.939931 0 0 -0.154054 0.0197774 -0.0430409 -0.00317039 0 0 -2.09548 0 0 
150 1 150 0.219906 0.979945 0 0 -0.143463 0.00189132 -0.0453789 0.00769334 0 0 -3.53307 0 0 
151 1 151 0.259981 0.0199895 0 0 -0.0735911 -0.16519 -0.0765458 -0.0780258 0 0 0.130022 0 0 
152 1 152 0.259949 0.0599691 0 0 -0.0756374 -0.162812 -0.0764332 -0.0678807 0 0 -0.39195 0 0 
153 1 153 0.259927 0.0999499 0 0 -0.0923999 -0.152149 -0.0783925 -0.0564742 0 0 -1.44943 0 0 
154 1 154 0.259913 0.139935 0 0 -0.100588 -0.127407 -0.0730822 -0.0484123 0 0 -2.37252 0 0 
155 1 155 0.259905 0.179923 0 0 -0.105744 -0.113416 -0.0702486 -0.046164 0 0 -2.74904 0 0 
156 1 156 0.259901 0.219915 0 0 -0.101577 -0.0895791 -0.0612603 -0.0404624 0 0 -2.60205 0 0 
157 1 157 0.259897 0.259908 0 0 -0.100414 -0.0850329 -0.0594271 -0.0514564 0 0 -1.53815 0 0 
158 1 158 0.259894 0.299903 0 0 -0.0950328 -0.0757717 -0.0547357 -0.0447561 0 0 -1.03877 0 0 
159 1 159 0.25989 0.339898 0 0 -0.0908111 -0.0747711 -0.0530655 -0.0585816 0 0 -0.30992 0 0 
160 1 160 0.259885 0.379893 0 0 -0.0863619 -0.0730039 -0.0510761 -0.0508875 0 0 -0.236715 0 0 
161 1 161 0.259883 0.419888 0 0 -0.0800413 -0.0643104 -0.0462621 -0.0480268 0 0 -0.442694 0 0 
162 1 162 0.259885 0.459883 0 0 -0.0845927 -0.0757561 -0.0513959 -0.0396744 0 0 -0.547451 0 0 
163 1 163 0.25989 0.499878 0 0 -0.0787431 -0.0637851 -0.0456837 -0.0325341 0 0 -0.67928 0 0 
164 1 164 0.259899 0.539874 0 0 -0.0881776 -0.0734656 -0.0518079 -0.0257963 0 0 -0.426173 0 0 
165 1 165 0.259904 0.579869 0 0 -0.0989278 -0.0705183 -0.054308 -0.0412009 0 0 -0.209887 0 0 
166 1 166 0.2599 0.619866 0 0 -0.100366 -0.0596232 -0.051274 -0.0533927 0 0 -0.484524 0 0 
167 1 167 0.25989 0.659864 0 0 -0.109346 -0.0604099 -0.0544035 -0.0763919 0 0 -0.710832 0 0 
168 1 168 0.259875 0.699864 0 0 -0.103926 -0.038597 -0.0456692 -0.0809111 0 0 -0.995138 0 0 
169 1 169 0.259858 0.739866 0 0 -0.0973355 -0.0277512 -0.0400795 -0.0924615 0 0 -0.297174 0 0 
170 1 170 0.259843 0.77987 0 0 -0.105754 -0.0211788 -0.0406701 -0.061799 0 0 -0.533602 0 0 
171 1 171 0.259838 0.819877 0 0 -0.109343 0.0049682 -0.0334334 -0.0517722 0 0 -0.412336 0 0 
172 1 172 0.259839 0.859888 0 0 -0.119986 0.0212726 -0.0316229 -0.0219475 0 0 -0.801332 0 0 
173 1 173 0.259849 0.899902 0 0 -0.135421 0.0332511 -0.0327259 -0.00197489 0 0 -2.11621 0 0 
174 1 174 0.259863 0.939918 0 0 -0.144473 0.0346375 -0.0352044 -0.00254835 0 0 -2.7493 0 0 
175 1 175 0.25988 0.979932 0 0 -0.143973 0.00808648 -0.0435529 0.0133417 0 0 -4.24269 0 0 
176 1 176 0.299984 0.019988 0 0 -0.0830861 -0.186984 -0.0865851 -0.0740816 0 0 0.400241 0 0 
177 1 177 0.299955 0.0599642 0 0 -0.07386 -0.184528 -0.0828324 -0.0682184 0 0 0.0822327 0 0 
178 1 178 0.299928 0.0999413 0 0 -0.0753556 -0.168598 -0.0782009 -0.0639519 0 0 -1.14641 0 0 
179 1 179 0.29991 0.139922 0 0 -0.0828109 -0.141063 -0.0717588 -0.0516941 0 0 -2.17525 0 0 
180 1 180 0.299899 0.179908 0 0 -0.0952337 -0.128128 -0.0715957 -0.0505937 0 0 -2.49867 0 0 
181 1 181 0.299894 0.219897 0 0 -0.0929315 -0.094463 -0.0600551 -0.0429989 0 0 -2.4255 0 0 
182 1 182 0.29989 0.259889 0 0 -0.0916747 -0.0919143 -0.0588318 -0.0523279 0 0 -1.56951 0 0 
183 1 183 0.299888 0.299882 0 0 -0.0810254 -0.0754062 -0.0501238 -0.0464972 0 0 -0.982302 0 0 
184 1 184 0.299885 0.339876 0 0 -0.0707705 -0.0643743 -0.0432998 -0.05618 0 0 -0.015485 0 0 
185 1 185 0.299882 0.37987 0 0 -0.0654537 -0.0713045 -0.0438202 -0.0497584 0 0 0.304491 0 0 
186 1 186 0.299881 0.419864 0 0 -0.0595597 -0.0573098 -0.0374484 -0.049084 0 0 0.456719 0 0 
187 1 187 0.299885 0.459859 0 0 -0.0760588 -0.0788425 -0.049649 -0.0382904 0 0 0.736913 0 0 
188 1 188 0.299893 0.499852 0 0 -0.0827013 -0.0691462 -0.0486734 -0.0309707 0 0 0.887158 0 0 
189 1 189 0.299906 0.539848 0 0 -0.106277 -0.0815316 -0.0602 -0.0248234 0 0 1.07868 0 0 
190 1 190 0.299919 0.579844 0 0 -0.121943 -0.0765802 -0.0636324 -0.0395689 0 0 1.28955 0 0 
191 1 191 0.299926 0.619842 0 0 -0.140625 -0.0711196 -0.0678722 -0.0514023 0 0 1.54505 0 0 
192 1 192 0.29992 0.659842 0 0 -0.159812 -0.0709757 -0.0739791 -0.0793717 0 0 2.03983 0 0 
193 1 193 0.2999 0.699844 0 0 -0.165018 -0.0590926 -0.0718363 -0.0794894 0 0 1.74034 0 0 
194 1 194 0.299875 0.739848 0 0 -0.161591 -0.0545889 -0.0692924 -0.0906193 0 0 1.9549 0 0 
195 1 195 0.299851 0.779853 0 0 -0.138162 -0.0212929 -0.0510986 -0.0669263 0 0 1.60873 0 0 
196 1 196 0.299835 0.819861 0 0 -0.142275 -0.0144449 -0.0502169 -0.056377 0 0 1.22721 0 0 
197 1 197 0.299827 0.859871 0 0 -0.143095 0.0185561 -0.0399037 -0.0331967 0 0 0.228909 0 0 
198 1 198 0.299831 0.899887 0 0 -0.151172 0.0268824 -0.0398189 -0.0146297 0 0 -1.26341 0 0 
199 1 199 0.299841 0.939902 0 0 -0.159052 0.0215971 -0.0440567 -0.00921518 0 0 -2.31324 0 0 
200 1 200 0.299857 0.979917 0 0 -0.161669 0.0128652 -0.047692 0.00843811 0 0 -4.05581 0 0 
201 1 201 0.339984 0.019987 0 0 -0.0788927 -0.197715 -0.0886826 -0.0665636 0 0 0.18071 0 0 
202 1 202 0.339954 0.0599608 0 0 -0.0619687 -0.197354 -0.083133 -0.0631635 0 0 -0.242688 0 0 
203 1 203 0.339927 0.0999348 0 0 -0.0652797 -0.185681 -0.0804496 -0.0663413 0 0 -1.01744 0 0 
204 1 204 0.339908 0.139912 0 0 -0.0711258 -0.158214 -0.0735123 -0.0512595 0 0 -1.78861 0 0 
205 1 205 0.339894 0.179894 0 0 -0.0785174 -0.141725 -0.0705966 -0.0508722 0 0 -2.07739 0 0 
206 1 206 0.339886 0.21988 0 0 -0.0784135 -0.104682 -0.0586798 -0.0433244 0 0 -1.91107 0 0 
207 1 207 0.339882 0.25987 0 0 -0.0838592 -0.0984379 -0.0584201 -0.0476014 0 0 -1.13382 0 0 
208 1 208 0.339879 0.299861 0 0 -0.0723953 -0.0792856 -0.0486007 -0.044171 0 0 -0.503242 0 0 
209 1 209 0.339877 0.339855 0 0 -0.0560851 -0.0577361 -0.0364638 -0.0523336 0 0 0.165162 0 0 
210 1 210 0.339875 0.379849 0 0 -0.0526581 -0.0706086 -0.0394915 -0.0472621 0 0 0.246711 0 0 
211 1 211 0.339873 0.419843 0 0 -0.0358996 -0.0480243 -0.0268828 -0.047945 0 0 0.312769 0 0 
212 1 212 0.339874 0.459837 0 0 -0.0334031 -0.0585368 -0.0294573 -0.03593 0 0 -0.100617 0 0 
213 1 213 0.339878 0.499831 0 0 -0.0283487 -0.0492286 -0.0248578 -0.0338581 0 0 -0.576311 0 0 
214 1 214 0.339882 0.539826 0 0 -0.0462594 -0.0490985 -0.0305534 -0.0323544 0 0 -0.752224 0 0 
215 1 215 0.33988 0.579823 0 0 -0.0720635 -0.0493587 -0.0389078 -0.0464527 0 0 -0.795643 0 0 
216 1 216 0.339872 0.619822 0 0 -0.0826487 -0.0329409 -0.0370396 -0.0561891 0 0 -0.913522 0 0 
217 1 217 0.339857 0.659823 0 0 -0.0902612 -0.031995 -0.0391756 -0.0780324 0 0 -0.802762 0 0 
218 1 218 0.33984 0.699826 0 0 -0.0801383 -0.00600817 -0.0275998 -0.0768389 0 0 -0.859991 0 0 
219 1 219 0.339823 0.739831 0 0 -0.0904859 -0.0175324 -0.0346096 -0.0839129 0 0 -0.430509 0 0 
220 1 220 0.339808 0.779836 0 0 -0.0872093 0.00629504 -0.0259198 -0.0611963 0 0 -0.615938 0 0 
221 1 221 0.339799 0.819845 0 0 -0.0923054 0.0136644 -0.0251881 -0.0602155 0 0 -0.497262 0 0 
222 1 222 0.339794 0.859855 0 0 -0.1082 0.0245145 -0.0268122 -0.0371427 0 0 -1.12121 0 0 
223 1 223 0.339799 0.899869 0 0 -0.12793 0.033041 -0.0303988 -0.0211728 0 0 -2.20098 0 0 
224 1 224 0.33981 0.939884 0 0 -0.152851 0.0234522 -0.0414739 -0.01683 0 0 -2.79271 0 0 
225 1 225 0.339826 0.9799 0 0 -0.176521 0.0137655 -0.052164 0.00667718 0 0 -4.27475 0 0 
226 1 226 0.379988 0.0199862 0 0 -0.0886514 -0.210065 -0.0957746 -0.0572372 0 0 0.212061 0 0 
227 1 227 0.379963 0.0599587 0 0 -0.0705258 -0.210035 -0.0899456 -0.05641 0 0 -0.0875279 0 0 
228 1 228 0.379935 0.0999304 0 0 -0.0588371 -0.201596 -0.0834888 -0.0644316 0 0 -0.645773 0 0 
229 1 229 0.379912 0.139905 0 0 -0.0524898 -0.167493 -0.0705114 -0.0496779 0 0 -1.14261 0 0 
230 1 230 0.379895 0.179883 0 0 -0.0685642 -0.158176 -0.0726819 -0.0473781 0 0 -1.21393 0 0 
231 1 231 0.379885 0.219866 0 0 -0.0674869 -0.11936 -0.0598868 -0.0388871 0 0 -1.05503 0 0 
232 1 232 0.379879 0.259853 0 0 -0.0672951 -0.10421 -0.0549647 -0.0377759 0 0 -0.577411 0 0 
233 1 233 0.379877 0.299843 0 0 -0.0604289 -0.0831158 -0.0459974 -0.0365379 0 0 -0.056546 0 0 
234 1 234 0.379875 0.339835 0 0 -0.0520563 -0.0663783 -0.037948 -0.0427832 0 0 0.53778 0 0 
235 1 235 0.379875 0.379828 0 0 -0.0410834 -0.063596 -0.0335349 -0.0383235 0 0 0.865027 0 0 
236 1 236 0.379876 0.419822 0 0 -0.0297445 -0.0482157 -0.0249707 -0.0422452 0 0 1.18403 0 0 
237 1 237 0.379879 0.459815 0 0 -0.0406467 -0.0604873 -0.0323995 -0.0290347 0 0 0.895606 0 0 
238 1 238 0.379886 0.499809 0 0 -0.057679 -0.0610735 -0.0380506 -0.0312611 0 0 0.880189 0 0 
239 1 239 0.379893 0.539804 0 0 -0.0818368 -0.0635755 -0.0465965 -0.0274786 0 0 0.605217 0 0 
240 1 240 0.379899 0.579802 0 0 -0.102608 -0.058509 -0.0516342 -0.0432715 0 0 0.732894 0 0 
241 1 241 0.379898 0.619802 0 0 -0.135421 -0.0527754 -0.0603235 -0.0558354 0 0 1.06061 0 0 
242 1 242 0.379886 0.659804 0 0 -0.168198 -0.0614543 -0.0736184 -0.0760424 0 0 1.50676 0 0 
243 1 243 0.379865 0.699809 0 0 -0.168427 -0.0443864 -0.0682169 -0.0745624 0 0 1.6839 0 0 
244 1 244 0.379839 0.739815 0 0 -0.16064 -0.0397716 -0.0642365 -0.0840495 0 0 1.84859 0 0 
245 1 245 0.379815 0.779821 0 0 -0.151607 -0.025968 -0.056913 -0.0630681 0 0 1.29343 0 0 
246 1 246 0.379797 0.81983 0 0 -0.152638 -0.0168238 -0.0543103 -0.0614089 0 0 0.739711 0 0 
247 1 247 0.379784 0.85984 0 0 -0.14893 0.000391521 -0.0476082 -0.0449407 0 0 -0.25862 0 0 
248 1 248 0.379781 0.899852 0 0 -0.161974 0.00266161 -0.0510603 -0.0250197 0 0 -1.54144 0 0 
249 1 249 0.379786 0.939866 0 0 -0.17867 0.012207 -0.0533632 -0.0226673 0 0 -2.28685 0 0 
250 1 250 0.379797 0.979882 0 0 -0.197288 0.0136892 -0.0588499 0.000640838 0 0 -3.8129 0 0 
251 1 251 0.419988 0.0199864 0 0 -0.0776642 -0.204758 -0.0905452 -0.0453787 0 0 -0.304402 0 0 
252 1 252 0.419964 0.0599588 0 0 -0.0508145 -0.200365 -0.0805175 -0.0469166 0 0 -0.687069 0 0 
253 1 253 0.419939 0.09993 0 0 -0.0474319 -0.205407 -0.0810516 -0.0552201 0 0 -0.626146 0 0 
254 1 254 0.419916 0.139902 0 0 -0.0418029 -0.178569 -0.0706375 -0.0442886 0 0 -0.670727 0 0 
255 1 255 0.419896 0.179878 0 0 -0.053485 -0.168386 -0.0711214 -0.0430486 0 0 -0.492355 0 0 
256 1 256 0.419883 0.219858 0 0 -0.0559895 -0.135864 -0.0614944 -0.0328614 0 0 -0.280252 0 0 
257 1 257 0.419875 0.259842 0 0 -0.0623185 -0.118765 -0.0580393 -0.0298195 0 0 0.0843608 0 0 
258 1 258 0.419872 0.299829 0 0 -0.0613641 -0.0963601 -0.0505482 -0.0298908 0 0 0.375334 0 0 
259 1 259 0.41987 0.33982 0 0 -0.0535096 -0.0789782 -0.0424565 -0.0315419 0 0 0.672717 0 0 
260 1 260 0.419871 0.379812 0 0 -0.0420051 -0.0663041 -0.0347014 -0.026965 0 0 0.824101 0 0 
261 1 261 0.419871 0.419805 0 0 -0.0328149 -0.0560117 -0.0284561 -0.0366595 0 0 0.939096 0 0 
262 1 262 0.419872 0.459798 0 0 -0.0226033 -0.0515265 -0.0237443 -0.0240137 0 0 0.156395 0 0 
263 1 263 0.419873 0.499793 0 0 -0.0165786 -0.0386401 -0.0176849 -0.0369735 0 0 -0.196647 0 0 
264 1 264 0.41987 0.539789 0 0 -0.0349228 -0.0353589 -0.0225107 -0.0361031 0 0 -1.03018 0 0 
265 1 265 0.419861 0.579787 0 0 -0.0585676 -0.0335344 -0.0295058 -0.0513134 0 0 -1.21194 0 0 
266 1 266 0.419844 0.619787 0 0 -0.0641191 -0.0127543 -0.0246305 -0.0617429 0 0 -1.15673 0 0 
267 1 267 0.419823 0.65979 0 0 -0.0701785 -0.00912155 -0.0254073 -0.0721175 0 0 -1.22675 0 0 
268 1 268 0.419804 0.699795 0 0 -0.0721389 0.00356913 -0.0219669 -0.0672817 0 0 -1.09245 0 0 
269 1 269 0.419787 0.739801 0 0 -0.078583 0.00261451 -0.0243359 -0.0722655 0 0 -0.876101 0 0 
270 1 270 0.419771 0.779808 0 0 -0.0841765 0.00656535 -0.0248654 -0.0595421 0 0 -0.985282 0 0 
271 1 271 0.419759 0.819816 0 0 -0.0974924 0.00530513 -0.0295373 -0.0572415 0 0 -1.14388 0 0 
272 1 272 0.419751 0.859825 0 0 -0.116323 0.00661717 -0.0351606 -0.043202 0 0 -1.58336 0 0 
273 1 273 0.419749 0.899836 0 0 -0.148469 0.00217023 -0.0468915 -0.0303523 0 0 -2.15805 0 0 
274 1 274 0.419753 0.939849 0 0 -0.182368 0.00382016 -0.0572419 -0.0270442 0 0 -2.49096 0 0 
275 1 275 0.419762 0.979865 0 0 -0.210422 0.010681 -0.0640284 -0.00452133 0 0 -3.74043 0 0 
276 1 276 0.459992 0.0199873 0 0 -0.0828909 -0.197273 -0.0898223 -0.0339324 0 0 -0.38873 0 0 
277 1 277 0.459975 0.0599607 0 0 -0.0621086 -0.199682 -0.0839218 -0.0373836 0 0 -0.561541 0 0 
278 1 278 0.45995 0.0999327 0 0 -0.0410709 -0.198435 -0.0767751 -0.0463777 0 0 -0.316859 0 0 
279 1 279 0.459925 0.139904 0 0 -0.034745 -0.191038 -0.0723746 -0.0402849 0 0 -0.211246 0 0 
280 1 280 0.459903 0.179878 0 0 -0.0428571 -0.175717 -0.0700644 -0.0391376 0 0 0.251179 0 0 
281 1 281 0.459887 0.219854 0 0 -0.0506683 -0.155337 -0.0660322 -0.0265856 0 0 0.357102 0 0 
282 1 282 0.459877 0.259835 0 0 -0.0571896 -0.134439 -0.0614212 -0.0221064 0 0 0.469279 0 0 
283 1 283 0.459872 0.29982 0 0 -0.0593532 -0.110156 -0.0543265 -0.0202449 0 0 0.675277 0 0 
284 1 284 0.45987 0.339808 0 0 -0.0555384 -0.0922748 -0.0473692 -0.0184026 0 0 0.881123 0 0 
285 1 285 0.459872 0.379798 0 0 -0.0468739 -0.0756053 -0.0392439 -0.0156537 0 0 1.02574 0 0 
286 1 286 0.459873 0.41979 0 0 -0.0445521 -0.0714572 -0.0371688 -0.0252835 0 0 1.36207 0 0 
287 1 287 0.459877 0.459782 0 0 -0.0509653 -0.0649117 -0.0371292 -0.0144765 0 0 1.0701 0 0 
288 1 288 0.459881 0.499776 0 0 -0.0783814 -0.07166 -0.0480862 -0.0326264 0 0 1.2409 0 0 
289 1 289 0.45988 0.539772 0 0 -0.0933462 -0.0557804 -0.0477884 -0.0324082 0 0 0.605149 0 0 
290 1 290 0.459878 0.579771 0 0 -0.119695 -0.0580058 -0.0569503 -0.0503253 0 0 0.605174 0 0 
291 1 291 0.45987 0.619773 0 0 -0.142359 -0.0450745 -0.0600752 -0.0600276 0 0 0.96173 0 0 
292 1 292 0.459853 0.659778 0 0 -0.161064 -0.0438622 -0.0656859 -0.0728588 0 0 1.52515 0 0 
293 1 293 0.459829 0.699783 0 0 -0.176075 -0.044696 -0.0707685 -0.070135 0 0 1.90568 0 0 
294 1 294 0.459803 0.739791 0 0 -0.172384 -0.0363705 -0.0669108 -0.0698511 0 0 1.63463 0 0 
295 1 295 0.459777 0.779798 0 0 -0.173949 -0.0373606 -0.0677345 -0.0611913 0 0 1.10067 0 0 
296 1 296 0.459756 0.819805 0 0 -0.177161 -0.0338008 -0.0676213 -0.0549269 0 0 0.137292 0 0 
297 1 297 0.459739 0.859813 0 0 -0.174452 -0.0297228 -0.0654517 -0.0444281 0 0 -0.717677 0 0 
298 1 298 0.45973 0.899823 0 0 -0.185866 -0.0232162 -0.0670255 -0.033543 0 0 -1.42976 0 0 
299 1 299 0.459726 0.939835 0 0 -0.200608 -0.0117561 -0.0680863 -0.0301936 0 0 -1.96856 0 0 
300 1 300 0.459729 0.97985 0 0 -0.210542 0.00546859 -0.0657379 -0.00764517 0 0 -3.12172 0 0 
301 1 301 0.499992 0.0199886 0 0 -0.0610729 -0.171396 -0.0745218 -0.0233172 0 0 -0.68349 0 0 
302 1 302 0.499976 0.0599644 0 0 -0.0404474 -0.17741 -0.0698295 -0.0299778 0 0 -1.03669 0 0 
303 1 303 0.499956 0.0999379 0 0 -0.0348607 -0.188577 -0.0716221 -0.0378761 0 0 -0.45422 0 0 
304 1 304 0.499933 0.13991 0 0 -0.0321144 -0.193872 -0.0724402 -0.0375234 0 0 0.0403131 0 0 
305 1 305 0.499909 0.179882 0 0 -0.0326914 -0.180946 -0.0684812 -0.0355129 0 0 0.578001 0 0 
306 1 306 0.49989 0.219857 0 0 -0.0407681 -0.166744 -0.066516 -0.0231698 0 0 0.704855 0 0 
307 1 307 0.499877 0.259835 0 0 -0.0526876 -0.149915 -0.0649392 -0.0171813 0 0 0.67741 0 0 
308 1 308 0.49987 0.299817 0 0 -0.0561115 -0.125319 -0.0581471 -0.0133996 0 0 0.611338 0 0 
309 1 309 0.499866 0.339802 0 0 -0.060171 -0.111106 -0.05489 -0.0108076 0 0 0.541179 0 0 
310 1 310 0.499867 0.37979 0 0 -0.0591082 -0.0929494 -0.0487243 -0.00885318 0 0 0.567689 0 0 
311 1 311 0.499867 0.41978 0 0 -0.057717 -0.0893361 -0.0471202 -0.0193453 0 0 0.846975 0 0 
312 1 312 0.499868 0.459772 0 0 -0.0453718 -0.0680534 -0.0363439 -0.0151527 0 0 0.268699 0 0 
313 1 313 0.499865 0.499765 0 0 -0.0481404 -0.0644556 -0.0360816 -0.0403364 0 0 0.140875 0 0 
314 1 314 0.499855 0.53976 0 0 -0.0481715 -0.0343264 -0.026429 -0.0426592 0 0 -0.685371 0 0 
315 1 315 0.499839 0.57976 0 0 -0.0653641 -0.0261736 -0.0293243 -0.0656959 0 0 -0.755786 0 0 
316 1 316 0.499814 0.619762 0 0 -0.069958 -0.00904383 -0.025308 -0.0667703 0 0 -1.11494 0 0 
317 1 317 0.49979 0.659767 0 0 -0.0581385 0.0137871 -0.0142029 -0.0737707 0 0 -1.22387 0 0 
318 1 318 0.499767 0.699773 0 0 -0.0618066 0.0154678 -0.0148407 -0.0695304 0 0 -0.906274 0 0 
319 1 319 0.499749 0.739781 0 0 -0.0673637 0.0188152 -0.0155469 -0.0602806 0 0 -1.12804 0 0 
320 1 320 0.499732 0.779789 0 0 -0.0830675 0.00949974 -0.0235699 -0.0603058 0 0 -1.0166 0 0 
321 1 321 0.499716 0.819797 0 0 -0.108336 -0.00445494 -0.0361398 -0.0488225 0 0 -1.49296 0 0 
322 1 322 0.499705 0.859804 0 0 -0.136312 -0.019291 -0.049872 -0.0419352 0 0 -1.71595 0 0 