ITEM: TIMESTEP
0
ITEM: NUMBER OF ATOMS
7127
ITEM: BOX BOUNDS sm sm sm
0 4
0 2
0 0
ITEM: ATOMS id type tag x y z vx 
0 1 0 0 0 0 0 
1 1 1 0 0.04 0 0 
2 1 2 0 0.08 0 0 
3 1 3 0 0.12 0 0 
4 1 4 0 0.16 0 0 
5 1 5 0 0.2 0 0 
6 1 6 0 0.24 0 0 
7 1 7 0 0.28 0 0 
8 1 8 0 0.32 0 0 
9 1 9 0 0.36 0 0 
10 1 10 0 0.4 0 0 
11 1 11 0 0.44 0 0 
12 1 12 0 0.48 0 0 
13 1 13 0 0.52 0 0 
14 1 14 0 0.56 0 0 
15 1 15 0 0.6 0 0 
16 1 16 0 0.64 0 0 
17 1 17 0 0.68 0 0 
18 1 18 0 0.72 0 0 
19 1 19 0 0.76 0 0 
20 1 20 0 0.8 0 0 
21 1 21 0 0.84 0 0 
22 1 22 0 0.88 0 0 
23 1 23 0 0.92 0 0 
24 1 24 0 0.96 0 0 
25 1 25 0 1 0 0 
26 1 26 0.04 0 0 0 
27 1 27 0.0399871 0.0399878 0 -0.0993671 
28 1 28 0.0399812 0.079983 0 -0.183724 
29 1 29 0.039975 0.11998 0 -0.362937 
30 1 30 0.0399689 0.159978 0 -0.484109 
31 1 31 0.0399646 0.199976 0 -0.5917 
32 1 32 0.039961 0.239974 0 -0.526034 
33 1 33 0.0399597 0.279973 0 -0.278506 
34 1 34 0.0399589 0.319972 0 -0.0119853 
35 1 35 0.0399614 0.359972 0 0.238255 
36 1 36 0.0399608 0.399973 0 0.42431 
37 1 37 0.0399627 0.439975 0 0.579767 
38 1 38 0.0399613 0.479978 0 0.613254 
39 1 39 0.0399632 0.519982 0 0.535096 
40 1 40 0.0399606 0.559987 0 0.425547 
41 1 41 0.0399623 0.599992 0 0.257965 
42 1 42 0.0399593 0.639996 0 0.208097 
43 1 43 0.0399599 0.679998 0 0.138542 
44 1 44 0.0399563 0.720002 0 0.125556 
45 1 45 0.0399552 0.760005 0 0.139303 
46 1 46 0.0399523 0.800011 0 0.203288 
47 1 47 0.0399514 0.840015 0 0.217687 
48 1 48 0.0399534 0.880021 0 0.294407 
49 1 49 0.0399512 0.920032 0 0.349909 
50 1 50 0.0399613 0.960037 0 0.576737 
51 1 51 0.0399166 1.00008 0 0.934303 
52 1 52 0.08 0 0 0 
53 1 53 0.0799801 0.039983 0 -0.221944 
54 1 54 0.0799644 0.0799689 0 -0.366727 
55 1 55 0.0799517 0.119961 0 -0.598114 
56 1 56 0.079941 0.159955 0 -0.749281 
57 1 57 0.0799318 0.199952 0 -0.850918 
58 1 58 0.0799255 0.239949 0 -0.688664 
59 1 59 0.0799212 0.279949 0 -0.366298 
60 1 60 0.0799207 0.319949 0 -0.0236451 
61 1 61 0.0799218 0.359951 0 0.341744 
62 1 62 0.0799226 0.399952 0 0.623936 
63 1 63 0.0799227 0.439957 0 0.843128 
64 1 64 0.0799222 0.47996 0 0.876525 
65 1 65 0.0799199 0.519968 0 0.732578 
66 1 66 0.0799199 0.559973 0 0.589559 
67 1 67 0.0799187 0.599981 0 0.392813 
68 1 68 0.0799198 0.639986 0 0.355197 
69 1 69 0.0799137 0.679993 0 0.319589 
70 1 70 0.0799127 0.719997 0 0.3281 
71 1 71 0.0799044 0.760007 0 0.364397 
72 1 72 0.0799041 0.800015 0 0.439041 
73 1 73 0.0798994 0.84003 0 0.520431 
74 1 74 0.0799019 0.880041 0 0.710894 
75 1 75 0.0799043 0.92006 0 0.963297 
76 1 76 0.0798961 0.960088 0 1.24926 
77 1 77 0.0798832 1.0001 0 1.55269 
78 1 78 0.12 0 0 0 
79 1 79 0.119976 0.0399771 0 -0.30056 
80 1 80 0.119952 0.0799581 0 -0.43135 
81 1 81 0.119932 0.119944 0 -0.648765 
82 1 82 0.119916 0.159935 0 -0.83436 
83 1 83 0.119902 0.199929 0 -0.92571 
84 1 84 0.119893 0.239927 0 -0.691947 
85 1 85 0.119885 0.279927 0 -0.33527 
86 1 86 0.119883 0.319928 0 0.046216 
87 1 87 0.119882 0.359931 0 0.415211 
88 1 88 0.119882 0.399935 0 0.643491 
89 1 89 0.119882 0.43994 0 0.804078 
90 1 90 0.11988 0.479946 0 0.807869 
91 1 91 0.119878 0.519952 0 0.662902 
92 1 92 0.119876 0.55996 0 0.53699 
93 1 93 0.119875 0.599967 0 0.431751 
94 1 94 0.119874 0.639976 0 0.449437 
95 1 95 0.119872 0.679983 0 0.519673 
96 1 96 0.119865 0.719994 0 0.610028 
97 1 97 0.119857 0.760004 0 0.64513 
98 1 98 0.119851 0.800021 0 0.727845 
99 1 99 0.119848 0.840038 0 0.825552 
100 1 100 0.119849 0.880059 0 1.09202 
101 1 101 0.119846 0.920085 0 1.5251 
102 1 102 0.119849 0.960102 0 1.84488 
103 1 103 0.119843 1.00013 0 2.04654 
104 1 104 0.16 0 0 0 
105 1 105 0.159971 0.0399729 0 -0.277632 
106 1 106 0.159942 0.0799504 0 -0.404642 
107 1 107 0.159916 0.119933 0 -0.606484 
108 1 108 0.159893 0.15992 0 -0.785477 
109 1 109 0.159875 0.199912 0 -0.853668 
110 1 110 0.159861 0.239908 0 -0.59987 
111 1 111 0.15985 0.279907 0 -0.229929 
112 1 112 0.159845 0.319908 0 0.150488 
113 1 113 0.159842 0.359913 0 0.424503 
114 1 114 0.159842 0.399918 0 0.543363 
115 1 115 0.159839 0.439924 0 0.621949 
116 1 116 0.159837 0.479931 0 0.561765 
117 1 117 0.159833 0.519939 0 0.419592 
118 1 118 0.159831 0.559947 0 0.309695 
119 1 119 0.159831 0.599955 0 0.294752 
120 1 120 0.15983 0.639964 0 0.430636 
121 1 121 0.159824 0.679976 0 0.628946 
122 1 122 0.159816 0.719987 0 0.876117 
123 1 123 0.159805 0.760005 0 0.993795 
124 1 124 0.159798 0.800021 0 1.14377 
125 1 125 0.159792 0.840046 0 1.26728 
126 1 126 0.159793 0.880068 0 1.4964 
127 1 127 0.159795 0.920093 0 1.92666 
128 1 128 0.159801 0.960118 0 2.28586 
129 1 129 0.159797 1.00014 0 2.50942 
130 1 130 0.2 0 0 0 
131 1 131 0.199966 0.0399708 0 -0.245125 
132 1 132 0.199933 0.0799465 0 -0.359008 
133 1 133 0.1999 0.119926 0 -0.513572 
134 1 134 0.199873 0.159911 0 -0.692289 
135 1 135 0.19985 0.199901 0 -0.738912 
136 1 136 0.199831 0.239894 0 -0.46813 
137 1 137 0.199817 0.279891 0 -0.12765 
138 1 138 0.199809 0.319891 0 0.174053 
139 1 139 0.199802 0.359895 0 0.30042 
140 1 140 0.1998 0.3999 0 0.335915 
141 1 141 0.199795 0.439908 0 0.349096 
142 1 142 0.199792 0.479916 0 0.251517 
143 1 143 0.199789 0.519925 0 0.152629 
144 1 144 0.199786 0.559934 0 0.147459 
145 1 145 0.199784 0.599945 0 0.266265 
146 1 146 0.199782 0.639956 0 0.542967 
147 1 147 0.199778 0.67997 0 0.864728 
148 1 148 0.19977 0.719986 0 1.17767 
149 1 149 0.199756 0.760005 0 1.33577 
150 1 150 0.199748 0.800025 0 1.50042 
151 1 151 0.199741 0.840048 0 1.65003 
152 1 152 0.199742 0.880074 0 1.87541 
153 1 153 0.199744 0.920097 0 2.27345 
154 1 154 0.199751 0.960121 0 2.64261 
155 1 155 0.199755 1.00015 0 2.88147 
156 1 156 0.24 0 0 0 
157 1 157 0.23996 0.0399694 0 -0.166814 
158 1 158 0.239922 0.0799438 0 -0.303837 
159 1 159 0.239885 0.119923 0 -0.483026 
160 1 160 0.239852 0.159906 0 -0.679877 
161 1 161 0.239825 0.199893 0 -0.681945 
162 1 162 0.239802 0.239884 0 -0.417287 
163 1 163 0.239784 0.279879 0 -0.141915 
164 1 164 0.239771 0.319877 0 0.122651 
165 1 165 0.239761 0.359881 0 0.185099 
166 1 166 0.239755 0.399886 0 0.167358 
167 1 167 0.23975 0.439895 0 0.0898359 
168 1 168 0.239746 0.479905 0 0.0102707 
169 1 169 0.239742 0.519915 0 0.0249998 
170 1 170 0.239739 0.559924 0 0.118686 
171 1 171 0.239739 0.599935 0 0.343791 
172 1 172 0.239736 0.639948 0 0.702442 
173 1 173 0.239727 0.679964 0 1.10263 
174 1 174 0.239716 0.719982 0 1.47781 
175 1 175 0.239705 0.760003 0 1.6712 
176 1 176 0.239696 0.800025 0 1.81393 
177 1 177 0.239688 0.840049 0 1.9605 
178 1 178 0.239691 0.880072 0 2.19853 
179 1 179 0.239695 0.920097 0 2.56701 
180 1 180 0.239702 0.960121 0 2.89138 
181 1 181 0.239703 1.00015 0 3.10316 
182 1 182 0.28 0 0 0 
183 1 183 0.279954 0.0399687 0 -0.16393 
184 1 184 0.27991 0.0799427 0 -0.375977 
185 1 185 0.279869 0.119921 0 -0.574494 
186 1 186 0.279831 0.159902 0 -0.747896 
187 1 187 0.2798 0.199888 0 -0.727331 
188 1 188 0.279773 0.239877 0 -0.492364 
189 1 189 0.279752 0.279871 0 -0.202421 
190 1 190 0.279734 0.319868 0 0.0844974 
191 1 191 0.27972 0.359871 0 0.0846292 
192 1 192 0.279712 0.399877 0 0.0172897 
193 1 193 0.279703 0.439886 0 -0.110296 
194 1 194 0.279699 0.479896 0 -0.12932 
195 1 195 0.279696 0.519906 0 0.0151372 
196 1 196 0.279694 0.559917 0 0.208544 
197 1 197 0.279689 0.59993 0 0.50503 
198 1 198 0.279686 0.639944 0 0.918201 
199 1 199 0.27968 0.679963 0 1.33741 
200 1 200 0.279671 0.719981 0 1.7477 
201 1 201 0.279656 0.760004 0 2.05501 
202 1 202 0.279647 0.800024 0 2.22605 
203 1 203 0.279642 0.840047 0 2.35636 
204 1 204 0.279643 0.880069 0 2.55756 
205 1 205 0.279645 0.920091 0 2.82362 
206 1 206 0.279651 0.960117 0 3.02603 
207 1 207 0.279655 1.00014 0 3.17003 
208 1 208 0.32 0 0 0 
209 1 209 0.319947 0.0399688 0 -0.223951 
210 1 210 0.319898 0.079942 0 -0.543988 
211 1 211 0.319853 0.119919 0 -0.776786 
212 1 212 0.31981 0.159899 0 -0.912299 
213 1 213 0.319775 0.199885 0 -0.849073 
214 1 214 0.319744 0.239873 0 -0.604683 
215 1 215 0.319719 0.279866 0 -0.277627 
216 1 216 0.319697 0.319864 0 -0.0299304 
217 1 217 0.319679 0.359867 0 -0.111571 
218 1 218 0.319666 0.399873 0 -0.167009 
219 1 219 0.319657 0.439883 0 -0.260256 
220 1 220 0.319654 0.479893 0 -0.160554 
221 1 221 0.319649 0.519904 0 0.0944858 
222 1 222 0.319647 0.559914 0 0.394532 
223 1 223 0.319644 0.599926 0 0.775283 
224 1 224 0.319638 0.639939 0 1.19904 
225 1 225 0.319625 0.679957 0 1.61357 
226 1 226 0.319614 0.719976 0 1.98619 
227 1 227 0.319605 0.759997 0 2.31953 
228 1 228 0.319597 0.800018 0 2.54708 
229 1 229 0.31959 0.84004 0 2.71817 
230 1 230 0.319594 0.880062 0 2.89294 
231 1 231 0.319597 0.920085 0 3.03956 
232 1 232 0.319599 0.960109 0 3.07535 
233 1 233 0.3196 1.00013 0 3.12053 
234 1 234 0.36 0 0 0 
235 1 235 0.359943 0.0399689 0 -0.317026 
236 1 236 0.359887 0.079941 0 -0.7236 
237 1 237 0.359837 0.119917 0 -0.980796 
238 1 238 0.35979 0.159898 0 -1.10386 
239 1 239 0.35975 0.199882 0 -1.01774 
240 1 240 0.359715 0.239871 0 -0.754814 
241 1 241 0.359687 0.279865 0 -0.440187 
242 1 242 0.359661 0.319862 0 -0.243152 
243 1 243 0.359638 0.359865 0 -0.279984 
244 1 244 0.359623 0.399871 0 -0.269294 
245 1 245 0.359612 0.439881 0 -0.382869 
246 1 246 0.359608 0.47989 0 -0.191413 
247 1 247 0.359605 0.519901 0 0.182202 
248 1 248 0.359603 0.55991 0 0.572841 
249 1 249 0.359594 0.599923 0 1.00845 
250 1 250 0.359587 0.639936 0 1.40272 
251 1 251 0.359579 0.679955 0 1.80583 
252 1 252 0.359569 0.719972 0 2.23015 
253 1 253 0.359556 0.759993 0 2.60688 
254 1 254 0.359549 0.800012 0 2.86354 
255 1 255 0.359545 0.840032 0 3.08439 
256 1 256 0.359544 0.880053 0 3.19741 
257 1 257 0.359545 0.920075 0 3.20887 
258 1 258 0.359546 0.960101 0 3.06489 
259 1 259 0.35955 1.00012 0 2.98738 
260 1 260 0.4 0 0 0 
261 1 261 0.399937 0.0399687 0 -0.428219 
262 1 262 0.399878 0.0799404 0 -0.905731 
263 1 263 0.399823 0.119917 0 -1.17145 
264 1 264 0.399771 0.159897 0 -1.27736 
265 1 265 0.399726 0.199882 0 -1.18142 
266 1 266 0.399688 0.239871 0 -0.927744 
267 1 267 0.399655 0.279865 0 -0.654598 
268 1 268 0.399625 0.319862 0 -0.464792 
269 1 269 0.3996 0.359864 0 -0.422752 
270 1 270 0.39958 0.39987 0 -0.403943 
271 1 271 0.399568 0.439878 0 -0.495483 
272 1 272 0.399564 0.479887 0 -0.157626 
273 1 273 0.399558 0.519897 0 0.32411 
274 1 274 0.399556 0.559906 0 0.80639 
275 1 275 0.39955 0.599917 0 1.25092 
276 1 276 0.39954 0.639929 0 1.58295 
277 1 277 0.399522 0.679945 0 1.92362 
278 1 278 0.399512 0.719963 0 2.33863 
279 1 279 0.399503 0.759982 0 2.76823 
280 1 280 0.399497 0.800002 0 3.05362 
281 1 281 0.399491 0.840022 0 3.30398 
282 1 282 0.399492 0.880044 0 3.37235 
283 1 283 0.399495 0.920067 0 3.30569 
284 1 284 0.399492 0.96009 0 3.03364 
285 1 285 0.399493 1.00012 0 2.8486 
286 1 286 0.44 0 0 0 
287 1 287 0.439934 0.0399685 0 -0.498131 
288 1 288 0.439869 0.0799412 0 -1.01906 
289 1 289 0.439809 0.119918 0 -1.30513 
290 1 290 0.439754 0.159898 0 -1.39338 
291 1 291 0.439705 0.199883 0 -1.27569 
292 1 292 0.439662 0.239872 0 -1.04542 
293 1 293 0.439626 0.279864 0 -0.813869 
294 1 294 0.439591 0.31986 0 -0.625626 
295 1 295 0.439562 0.35986 0 -0.564168 
296 1 296 0.439539 0.399863 0 -0.52115 
297 1 297 0.439525 0.439869 0 -0.451036 
298 1 298 0.439519 0.479876 0 0.0156079 
299 1 299 0.439516 0.519886 0 0.474808 
300 1 300 0.439513 0.559895 0 0.98428 
301 1 301 0.439499 0.599908 0 1.413 
302 1 302 0.439489 0.639922 0 1.707 
303 1 303 0.439478 0.679939 0 2.01218 
304 1 304 0.439468 0.719957 0 2.34947 
305 1 305 0.439455 0.759975 0 2.74015 
306 1 306 0.439449 0.799994 0 3.06089 
307 1 307 0.439445 0.840014 0 3.35712 
308 1 308 0.439442 0.880035 0 3.39111 
309 1 309 0.43944 0.920059 0 3.30756 
310 1 310 0.439438 0.960084 0 2.98003 
311 1 311 0.439442 1.00011 0 2.72316 
312 1 312 0.48 0 0 0 
313 1 313 0.479928 0.0399696 0 -0.535423 
314 1 314 0.479861 0.0799429 0 -1.06624 
315 1 315 0.479797 0.11992 0 -1.34678 
316 1 316 0.479737 0.1599 0 -1.41156 
317 1 317 0.479684 0.199884 0 -1.30143 
318 1 318 0.479637 0.239872 0 -1.11568 
319 1 319 0.479596 0.279862 0 -0.922446 
320 1 320 0.479559 0.319856 0 -0.713531 
321 1 321 0.479528 0.359853 0 -0.553743 
322 1 322 0.4795 0.399853 0 -0.395171 
323 1 323 0.479485 0.439856 0 -0.222849 
324 1 324 0.479477 0.479862 0 0.222364 
325 1 325 0.47947 0.519871 0 0.649421 
326 1 326 0.479465 0.559881 0 1.18945 
327 1 327 0.479456 0.599894 0 1.5481 
328 1 328 0.479443 0.639908 0 1.77044 
329 1 329 0.479422 0.679924 0 1.99524 
330 1 330 0.479411 0.719942 0 2.26065 
331 1 331 0.479403 0.759961 0 2.63286 
332 1 332 0.479397 0.799982 0 2.96062 
333 1 333 0.479389 0.840004 0 3.28666 
334 1 334 0.479388 0.880027 0 3.31885 
335 1 335 0.479388 0.920052 0 3.27017 
336 1 336 0.479383 0.960076 0 2.97673 
337 1 337 0.479384 1.0001 0 2.71317 
338 1 338 0.52 0 0 0 
339 1 339 0.519925 0.0399706 0 -0.539463 
340 1 340 0.519852 0.0799447 0 -1.07254 
341 1 341 0.519784 0.119922 0 -1.32558 
342 1 342 0.519721 0.159902 0 -1.32848 
343 1 343 0.519664 0.199885 0 -1.2132 
344 1 344 0.519613 0.23987 0 -1.03194 
345 1 345 0.519569 0.279858 0 -0.856615 
346 1 346 0.519528 0.319849 0 -0.668702 
347 1 347 0.519494 0.359841 0 -0.444768 
348 1 348 0.519465 0.399837 0 -0.197777 
349 1 349 0.519446 0.439837 0 0.0455363 
350 1 350 0.519433 0.47984 0 0.459694 
351 1 351 0.519427 0.519849 0 0.842796 
352 1 352 0.51942 0.55986 0 1.32262 
353 1 353 0.519403 0.599876 0 1.5451 
354 1 354 0.519392 0.639893 0 1.73244 
355 1 355 0.519379 0.679912 0 1.91611 
356 1 356 0.51937 0.719931 0 2.1104 
357 1 357 0.519355 0.759951 0 2.45637 
358 1 358 0.519349 0.799972 0 2.76512 
359 1 359 0.519342 0.839996 0 3.08987 
360 1 360 0.519336 0.88002 0 3.14707 
361 1 361 0.519331 0.920047 0 3.17118 
362 1 362 0.519329 0.960073 0 2.98564 
363 1 363 0.519333 1.0001 0 2.78181 
364 1 364 0.56 0 0 0 
365 1 365 0.559919 0.0399717 0 -0.528534 
366 1 366 0.559844 0.0799461 0 -1.00098 
367 1 367 0.559772 0.119923 0 -1.20158 
368 1 368 0.559704 0.159902 0 -1.13721 
369 1 369 0.559644 0.199883 0 -1.00631 
370 1 370 0.55959 0.239865 0 -0.847006 
371 1 371 0.559543 0.27985 0 -0.713576 
372 1 372 0.5595 0.319837 0 -0.53951 
373 1 373 0.559463 0.359826 0 -0.251376 
374 1 374 0.55943 0.399819 0 0.0439363 
375 1 375 0.559408 0.439816 0 0.313972 
376 1 376 0.559392 0.479817 0 0.680421 
377 1 377 0.55938 0.519826 0 0.962776 
378 1 378 0.55937 0.559838 0 1.30169 
379 1 379 0.559358 0.599854 0 1.45379 
380 1 380 0.559343 0.63987 0 1.69968 
381 1 381 0.55932 0.679889 0 1.86273 
382 1 382 0.559309 0.71991 0 1.99843 
383 1 383 0.5593 0.759932 0 2.30461 
384 1 384 0.559293 0.799958 0 2.58183 
385 1 385 0.559283 0.839984 0 2.9245 
386 1 386 0.559279 0.880012 0 3.02988 
387 1 387 0.559277 0.920041 0 3.09606 
388 1 388 0.559272 0.960068 0 3.03267 
389 1 389 0.559274 1.0001 0 2.93616 
390 1 390 0.6 0 0 0 
391 1 391 0.599917 0.0399715 0 -0.52937 
392 1 392 0.599835 0.0799458 0 -0.886248 
393 1 393 0.599759 0.119921 0 -1.01599 
394 1 394 0.59969 0.159899 0 -0.889108 
395 1 395 0.599625 0.199877 0 -0.717584 
396 1 396 0.599569 0.239857 0 -0.608456 
397 1 397 0.599519 0.279838 0 -0.551845 
398 1 398 0.599473 0.319822 0 -0.405641 
399 1 399 0.599434 0.359807 0 -0.102216 
400 1 400 0.599399 0.399795 0 0.235053 
401 1 401 0.599372 0.439789 0 0.529525 
402 1 402 0.59935 0.479789 0 0.795557 
403 1 403 0.599336 0.519797 0 0.93594 
404 1 404 0.599321 0.55981 0 1.15901 
405 1 405 0.5993 0.599828 0 1.31999 
406 1 406 0.599287 0.639849 0 1.6336 
407 1 407 0.599274 0.679871 0 1.79499 
408 1 408 0.599264 0.719894 0 1.93134 
409 1 409 0.599248 0.759919 0 2.20953 
410 1 410 0.599239 0.799945 0 2.43334 
411 1 411 0.599232 0.839974 0 2.73778 
412 1 412 0.599223 0.880004 0 2.86413 
413 1 413 0.599216 0.920035 0 2.98691 
414 1 414 0.599216 0.960064 0 3.10878 
415 1 415 0.599222 1.00009 0 3.17333 
416 1 416 0.64 0 0 0 
417 1 417 0.639912 0.0399709 0 -0.491607 
418 1 418 0.639828 0.0799432 0 -0.708168 
419 1 419 0.639749 0.119917 0 -0.752256 
420 1 420 0.639675 0.159892 0 -0.571606 
421 1 421 0.639609 0.199867 0 -0.378939 
422 1 422 0.639549 0.239844 0 -0.342007 
423 1 423 0.639496 0.279822 0 -0.377327 
424 1 424 0.639449 0.319802 0 -0.29771 
425 1 425 0.639408 0.359785 0 -0.0577112 
426 1 426 0.639369 0.399771 0 0.28945 
427 1 427 0.639337 0.439764 0 0.613219 
428 1 428 0.63931 0.479763 0 0.79452 
429 1 429 0.639286 0.51977 0 0.849761 
430 1 430 0.639266 0.559784 0 1.03631 
431 1 431 0.639251 0.599802 0 1.23454 
432 1 432 0.639233 0.639822 0 1.5879 
433 1 433 0.639209 0.679844 0 1.801 
434 1 434 0.639195 0.719869 0 1.95699 
435 1 435 0.639185 0.759897 0 2.13499 
436 1 436 0.639176 0.799927 0 2.27929 
437 1 437 0.639165 0.83996 0 2.53172 
438 1 438 0.63916 0.879993 0 2.67187 
439 1 439 0.639157 0.920025 0 2.83968 
440 1 440 0.639156 0.960056 0 3.13854 
441 1 441 0.639157 1.00009 0 3.37233 
442 1 442 0.68 0 0 0 
443 1 443 0.67991 0.0399688 0 -0.383918 
444 1 444 0.679822 0.0799389 0 -0.4833 
445 1 445 0.67974 0.11991 0 -0.473908 
446 1 446 0.679664 0.159883 0 -0.267705 
447 1 447 0.679596 0.199855 0 -0.0866108 
448 1 448 0.679533 0.239828 0 -0.130707 
449 1 449 0.679478 0.279803 0 -0.250044 
450 1 450 0.679427 0.31978 0 -0.229871 
451 1 451 0.679382 0.35976 0 -0.0362351 
452 1 452 0.679341 0.399744 0 0.31941 
453 1 453 0.679302 0.439735 0 0.642067 
454 1 454 0.679268 0.479733 0 0.772648 
455 1 455 0.67924 0.51974 0 0.793625 
456 1 456 0.679214 0.559755 0 0.943155 
457 1 457 0.679188 0.599775 0 1.17349 
458 1 458 0.67917 0.639799 0 1.5824 
459 1 459 0.679158 0.679825 0 1.89851 
460 1 460 0.679145 0.719851 0 2.05326 
461 1 461 0.679125 0.759881 0 2.0723 
462 1 462 0.679114 0.799912 0 2.12334 
463 1 463 0.679106 0.839946 0 2.28796 
464 1 464 0.679098 0.87998 0 2.43547 
465 1 465 0.679091 0.920015 0 2.67412 
466 1 466 0.679095 0.960047 0 3.14296 
467 1 467 0.6791 1.00008 0 3.53284 
468 1 468 0.72 0 0 0 
469 1 469 0.719906 0.039966 0 -0.295159 
470 1 470 0.719817 0.0799332 0 -0.278847 
471 1 471 0.719734 0.119902 0 -0.181743 
472 1 472 0.719655 0.159871 0 0.0451765 
473 1 473 0.719586 0.19984 0 0.204449 
474 1 474 0.71952 0.23981 0 0.0972938 
475 1 475 0.719461 0.279783 0 -0.105118 
476 1 476 0.719408 0.319758 0 -0.145737 
477 1 477 0.719359 0.359737 0 0.022416 
478 1 478 0.719312 0.399721 0 0.401468 
479 1 479 0.719268 0.439711 0 0.730375 
480 1 480 0.719227 0.479709 0 0.84702 
481 1 481 0.719188 0.519715 0 0.838825 
482 1 482 0.719157 0.55973 0 0.961569 
483 1 483 0.719135 0.599749 0 1.28273 
484 1 484 0.719113 0.639771 0 1.72155 
485 1 485 0.719087 0.679796 0 2.03406 
486 1 486 0.719067 0.719824 0 2.11222 
487 1 487 0.719054 0.759856 0 1.9848 
488 1 488 0.719042 0.79989 0 1.96508 
489 1 489 0.719029 0.839927 0 2.02273 
490 1 490 0.719026 0.879964 0 2.16794 
491 1 491 0.719024 0.92 0 2.46528 
492 1 492 0.719025 0.960035 0 3.09223 
493 1 493 0.719025 1.00007 0 3.63782 
494 1 494 0.76 0 0 0 
495 1 495 0.759906 0.0399629 0 -0.176415 
496 1 496 0.759813 0.0799273 0 -0.0553889 
497 1 497 0.759728 0.119893 0 0.111713 
498 1 498 0.75965 0.159858 0 0.322293 
499 1 499 0.759579 0.199825 0 0.450654 
500 1 500 0.75951 0.239793 0 0.3389 
501 1 501 0.759449 0.279763 0 0.136213 
502 1 502 0.759391 0.319737 0 0.0974666 
503 1 503 0.759337 0.359715 0 0.249183 
504 1 504 0.759286 0.399698 0 0.626513 
505 1 505 0.759234 0.439688 0 0.955512 
506 1 506 0.759185 0.479686 0 1.07824 
507 1 507 0.759142 0.519691 0 1.07417 
508 1 508 0.759104 0.559704 0 1.17765 
509 1 509 0.759069 0.599724 0 1.5016 
510 1 510 0.759044 0.63975 0 1.87792 
511 1 511 0.759032 0.679777 0 2.18761 
512 1 512 0.759012 0.719806 0 2.22345 
513 1 513 0.758988 0.759838 0 1.9791 
514 1 514 0.758973 0.799873 0 1.88824 
515 1 515 0.758963 0.83991 0 1.82696 
516 1 516 0.758956 0.879948 0 1.95866 
517 1 517 0.758949 0.919986 0 2.27918 
518 1 518 0.758956 0.960024 0 2.99764 
519 1 519 0.758959 1.00006 0 3.65514 
520 1 520 0.8 0 0 0 
521 1 521 0.799902 0.0399603 0 -0.0595025 
522 1 522 0.799811 0.0799214 0 0.12455 
523 1 523 0.799726 0.119884 0 0.346961 
524 1 524 0.799646 0.159847 0 0.564691 
525 1 525 0.799574 0.199811 0 0.702316 
526 1 526 0.799504 0.239778 0 0.652238 
527 1 527 0.799437 0.279747 0 0.533138 
528 1 528 0.799374 0.31972 0 0.545226 
529 1 529 0.799315 0.359699 0 0.67473 
530 1 530 0.799257 0.399683 0 1.02508 
531 1 531 0.7992 0.439673 0 1.3368 
532 1 532 0.799145 0.47967 0 1.44349 
533 1 533 0.799089 0.519674 0 1.4327 
534 1 534 0.799046 0.559687 0 1.52493 
535 1 535 0.799016 0.599703 0 1.83101 
536 1 536 0.798986 0.639725 0 2.10469 
537 1 537 0.798955 0.67975 0 2.3449 
538 1 538 0.798927 0.71978 0 2.32231 
539 1 539 0.798911 0.759814 0 2.01487 
540 1 540 0.798893 0.799851 0 1.85872 
541 1 541 0.798877 0.83989 0 1.694 
542 1 542 0.798875 0.87993 0 1.84379 
543 1 543 0.798873 0.91997 0 2.18 
544 1 544 0.798876 0.96001 0 2.92804 
545 1 545 0.798873 1.00005 0 3.6442 
546 1 546 0.84 0 0 0 
547 1 547 0.839904 0.039958 0 0.0682354 
548 1 548 0.83981 0.079917 0 0.32161 
549 1 549 0.839725 0.119877 0 0.6297 
550 1 550 0.839645 0.159838 0 0.876984 
551 1 551 0.839571 0.1998 0 1.0095 
552 1 552 0.839497 0.239765 0 1.00735 
553 1 553 0.839427 0.279733 0 0.977586 
554 1 554 0.839359 0.319707 0 1.07314 
555 1 555 0.839293 0.359685 0 1.22976 
556 1 556 0.83923 0.399669 0 1.55768 
557 1 557 0.839165 0.439659 0 1.82414 
558 1 558 0.839102 0.479655 0 1.90138 
559 1 559 0.839045 0.519658 0 1.88991 
560 1 560 0.838994 0.559668 0 1.92915 
561 1 561 0.838948 0.599685 0 2.12961 
562 1 562 0.838915 0.63971 0 2.27619 
563 1 563 0.838897 0.679737 0 2.40979 
564 1 564 0.83887 0.719768 0 2.31275 
565 1 565 0.838841 0.759802 0 2.01871 
566 1 566 0.838819 0.799838 0 1.88655 
567 1 567 0.838807 0.839877 0 1.69184 
568 1 568 0.838798 0.879917 0 1.82959 
569 1 569 0.838789 0.919958 0 2.10337 
570 1 570 0.838795 0.96 0 2.80055 
571 1 571 0.838797 1.00004 0 3.51621 
572 1 572 0.88 0 0 0 
573 1 573 0.879902 0.0399568 0 0.235228 
574 1 574 0.879811 0.0799136 0 0.540634 
575 1 575 0.879725 0.119871 0 0.880568 
576 1 576 0.879644 0.159829 0 1.12357 
577 1 577 0.87957 0.199791 0 1.27742 
578 1 578 0.879493 0.239754 0 1.40857 
579 1 579 0.879417 0.279723 0 1.52006 
580 1 580 0.879343 0.319696 0 1.66761 
581 1 581 0.879271 0.359675 0 1.78999 
582 1 582 0.8792 0.399661 0 2.02686 
583 1 583 0.879129 0.43965 0 2.2109 
584 1 584 0.87906 0.479646 0 2.26457 
585 1 585 0.878992 0.519648 0 2.28451 
586 1 586 0.878935 0.559658 0 2.29197 
587 1 587 0.878895 0.599672 0 2.36973 
588 1 588 0.878856 0.639692 0 2.36927 
589 1 589 0.878815 0.679719 0 2.36077 
590 1 590 0.878781 0.719751 0 2.22097 
591 1 591 0.878759 0.759786 0 1.98437 
592 1 592 0.878735 0.799824 0 1.87526 
593 1 593 0.878716 0.839864 0 1.71446 
594 1 594 0.87871 0.879905 0 1.86159 
595 1 595 0.878705 0.919946 0 2.06086 
596 1 596 0.878705 0.95999 0 2.69186 
597 1 597 0.8787 1.00003 0 3.37582 
598 1 598 0.92 0 0 0 
599 1 599 0.919905 0.039956 0 0.398014 
600 1 600 0.919813 0.0799112 0 0.804613 
601 1 601 0.919727 0.119867 0 1.19535 
602 1 602 0.919646 0.159823 0 1.42014 
603 1 603 0.919568 0.199783 0 1.56261 
604 1 604 0.919487 0.239746 0 1.76844 
605 1 605 0.919407 0.279713 0 1.97235 
606 1 606 0.919326 0.319687 0 2.15183 
607 1 607 0.919246 0.359665 0 2.23779 
608 1 608 0.91917 0.39965 0 2.37453 
609 1 609 0.919091 0.43964 0 2.46112 
610 1 610 0.919015 0.479637 0 2.46109 
611 1 611 0.918946 0.519638 0 2.50396 
612 1 612 0.918882 0.559646 0 2.49095 
613 1 613 0.918823 0.599662 0 2.41381 
614 1 614 0.918781 0.639687 0 2.22858 
615 1 615 0.918754 0.679716 0 2.05831 
616 1 616 0.918721 0.71975 0 1.92618 
617 1 617 0.918686 0.759785 0 1.83133 
618 1 618 0.91866 0.799822 0 1.78734 
619 1 619 0.918643 0.839859 0 1.67772 
620 1 620 0.918628 0.8799 0 1.8335 
621 1 621 0.918614 0.919942 0 1.99669 
622 1 622 0.918616 0.959986 0 2.52761 
623 1 623 0.918613 1.00003 0 3.10803 
624 1 624 0.96 0 0 0 
625 1 625 0.959906 0.0399554 0 0.610963 
626 1 626 0.959817 0.0799088 0 1.12941 
627 1 627 0.95973 0.119862 0 1.52151 
628 1 628 0.959647 0.159818 0 1.69602 
629 1 629 0.959567 0.199776 0 1.79048 
630 1 630 0.959483 0.239739 0 1.9996 
631 1 631 0.959396 0.279707 0 2.24311 
632 1 632 0.959309 0.31968 0 2.43807 
633 1 633 0.959221 0.359659 0 2.48148 
634 1 634 0.959135 0.399645 0 2.48545 
635 1 635 0.959052 0.439636 0 2.49098 
636 1 636 0.95897 0.479631 0 2.49028 
637 1 637 0.958889 0.519633 0 2.54544 
638 1 638 0.958819 0.559642 0 2.50745 
639 1 639 0.958768 0.599656 0 2.3283 
640 1 640 0.958717 0.639677 0 2.00996 
641 1 641 0.958666 0.679706 0 1.68408 
642 1 642 0.958626 0.719742 0 1.53901 
643 1 643 0.958599 0.759779 0 1.55602 
644 1 644 0.958571 0.799817 0 1.61584 
645 1 645 0.958547 0.839856 0 1.64663 
646 1 646 0.958534 0.879896 0 1.81731 
647 1 647 0.958524 0.919938 0 1.93172 
648 1 648 0.958517 0.959983 0 2.35815 
649 1 649 0.958507 1.00003 0 2.81886 
650 1 650 1 0 0 0 
651 1 651 0.999911 0.0399541 0 0.759523 
652 1 652 0.99982 0.0799067 0 1.34161 
653 1 653 0.999733 0.119859 0 1.71174 
654 1 654 0.999649 0.159813 0 1.86306 
655 1 655 0.999565 0.199771 0 1.94483 
656 1 656 0.999475 0.239733 0 2.16971 
657 1 657 0.999383 0.279702 0 2.4238 
658 1 658 0.999289 0.319676 0 2.573 
659 1 659 0.999194 0.359655 0 2.56443 
660 1 660 0.999102 0.399641 0 2.46403 
661 1 661 0.999011 0.43963 0 2.40438 
662 1 662 0.99892 0.479627 0 2.4164 
663 1 663 0.99884 0.519629 0 2.52754 
664 1 664 0.998764 0.559636 0 2.51468 
665 1 665 0.998691 0.599653 0 2.20793 
666 1 666 0.998636 0.639679 0 1.73132 
667 1 667 0.9986 0.679711 0 1.32033 
668 1 668 0.998561 0.719747 0 1.21045 
669 1 669 0.998521 0.759784 0 1.31003 
670 1 670 0.998492 0.799822 0 1.48685 
671 1 671 0.99847 0.839859 0 1.68038 
672 1 672 0.998445 0.879899 0 1.83294 
673 1 673 0.998425 0.919941 0 1.8645 
674 1 674 0.998418 0.959987 0 2.12211 
675 1 675 0.998411 1.00003 0 2.41214 
676 1 676 1.04 0 0 0 
677 1 677 1.03991 0.0399538 0 0.856688 
678 1 678 1.03983 0.0799048 0 1.51377 
679 1 679 1.03974 0.119856 0 1.89042 
680 1 680 1.03965 0.15981 0 2.00874 
681 1 681 1.03956 0.199768 0 2.01858 
682 1 682 1.03947 0.239732 0 2.22028 
683 1 683 1.03937 0.279701 0 2.4987 
684 1 684 1.03927 0.319676 0 2.63806 
685 1 685 1.03916 0.359656 0 2.64627 
686 1 686 1.03906 0.399643 0 2.50138 
687 1 687 1.03897 0.439634 0 2.40609 
688 1 688 1.03887 0.47963 0 2.45683 
689 1 689 1.03878 0.519631 0 2.59398 
690 1 690 1.0387 0.55964 0 2.5709 
691 1 691 1.03863 0.599654 0 2.20973 
692 1 692 1.03857 0.639676 0 1.64815 
693 1 693 1.03851 0.679707 0 1.12722 
694 1 694 1.03846 0.719744 0 1.0195 
695 1 695 1.03843 0.759783 0 1.21288 
696 1 696 1.0384 0.799823 0 1.46348 
697 1 697 1.03837 0.839862 0 1.69413 
698 1 698 1.03834 0.879903 0 1.81443 
699 1 699 1.03833 0.919945 0 1.86888 
700 1 700 1.03831 0.959992 0 2.00568 
701 1 701 1.0383 1.00004 0 2.12182 
702 1 702 1.08 0 0 0 
703 1 703 1.07992 0.0399521 0 0.841931 
704 1 704 1.07983 0.0799036 0 1.49298 
705 1 705 1.07974 0.119855 0 1.86547 
706 1 706 1.07965 0.159809 0 2.02983 
707 1 707 1.07955 0.199768 0 2.08189 
708 1 708 1.07945 0.239733 0 2.31055 
709 1 709 1.07935 0.279703 0 2.62309 
710 1 710 1.07924 0.31968 0 2.77432 
711 1 711 1.07913 0.359661 0 2.80662 
712 1 712 1.07903 0.399648 0 2.63651 
713 1 713 1.07892 0.439639 0 2.55685 
714 1 714 1.07882 0.479636 0 2.67345 
715 1 715 1.07873 0.519637 0 2.82793 
716 1 716 1.07864 0.559644 0 2.80668 
717 1 717 1.07856 0.59966 0 2.40945 
718 1 718 1.07849 0.639685 0 1.75086 
719 1 719 1.07844 0.679717 0 1.12756 
720 1 720 1.07839 0.719754 0 1.00083 
721 1 721 1.07834 0.759792 0 1.23282 
722 1 722 1.07831 0.799832 0 1.55185 
723 1 723 1.07828 0.83987 0 1.85221 
724 1 724 1.07825 0.879912 0 1.96693 
725 1 725 1.07822 0.919955 0 1.94519 
726 1 726 1.0782 0.960003 0 1.77392 
727 1 727 1.07819 1.00005 0 1.63269 
728 1 728 1.12 0 0 0 
729 1 729 1.11991 0.0399515 0 0.663192 
730 1 730 1.11983 0.0799032 0 1.30743 
731 1 731 1.11974 0.119855 0 1.76003 
732 1 732 1.11964 0.159811 0 2.05676 
733 1 733 1.11954 0.199771 0 2.23619 
734 1 734 1.11944 0.239738 0 2.522 
735 1 735 1.11932 0.27971 0 2.87343 
736 1 736 1.11921 0.319689 0 3.05464 
737 1 737 1.1191 0.359671 0 3.13281 
738 1 738 1.11899 0.39966 0 3.00281 
739 1 739 1.11888 0.439652 0 2.97806 
740 1 740 1.11877 0.479649 0 3.14268 
741 1 741 1.11867 0.51965 0 3.2965 
742 1 742 1.11858 0.559658 0 3.22839 
743 1 743 1.1185 0.59967 0 2.77037 
744 1 744 1.11842 0.63969 0 2.08522 
745 1 745 1.11834 0.679719 0 1.43052 
746 1 746 1.11829 0.719756 0 1.22935 
747 1 747 1.11825 0.759794 0 1.36759 
748 1 748 1.11821 0.799835 0 1.62921 
749 1 749 1.11817 0.839877 0 1.93053 
750 1 750 1.11814 0.87992 0 2.05678 
751 1 751 1.11812 0.919964 0 2.01757 
752 1 752 1.11809 0.960015 0 1.68113 
753 1 753 1.11807 1.00007 0 1.38894 
754 1 754 1.16 0 0 0 
755 1 755 1.15991 0.0399504 0 0.498646 
756 1 756 1.15983 0.079903 0 1.13322 
757 1 757 1.15973 0.119857 0 1.67313 
758 1 758 1.15963 0.159814 0 2.08628 
759 1 759 1.15953 0.199776 0 2.40463 
760 1 760 1.15941 0.239745 0 2.82146 
761 1 761 1.1593 0.279719 0 3.26614 
762 1 762 1.15918 0.319699 0 3.50777 
763 1 763 1.15906 0.359684 0 3.65311 
764 1 764 1.15895 0.399672 0 3.55841 
765 1 765 1.15883 0.439665 0 3.53306 
766 1 766 1.15872 0.479663 0 3.66505 
767 1 767 1.15862 0.519665 0 3.77726 
768 1 768 1.15853 0.559671 0 3.65581 
769 1 769 1.15842 0.599685 0 3.13999 
770 1 770 1.15834 0.639708 0 2.41905 
771 1 771 1.15828 0.679736 0 1.72241 
772 1 772 1.15822 0.71977 0 1.4287 
773 1 773 1.15816 0.759808 0 1.46583 
774 1 774 1.15812 0.799849 0 1.66698 
775 1 775 1.15808 0.83989 0 1.93623 
776 1 776 1.15804 0.879934 0 2.04869 
777 1 777 1.158 0.91998 0 2.01474 
778 1 778 1.15798 0.96003 0 1.61984 
779 1 779 1.15796 1.00008 0 1.25371 
780 1 780 1.2 0 0 0 
781 1 781 1.19991 0.0399502 0 0.296536 
782 1 782 1.19982 0.0799032 0 0.897514 
783 1 783 1.19973 0.119859 0 1.57381 
784 1 784 1.19962 0.159819 0 2.17306 
785 1 785 1.19951 0.199783 0 2.68932 
786 1 786 1.19939 0.239755 0 3.22452 
787 1 787 1.19927 0.27973 0 3.6841 
788 1 788 1.19915 0.319712 0 3.93777 
789 1 789 1.19903 0.359697 0 4.10902 
790 1 790 1.1989 0.399688 0 4.03345 
791 1 791 1.19879 0.439683 0 4.03602 