ITEM: TIMESTEP
0
ITEM: NUMBER OF ATOMS
6875
ITEM: BOX BOUNDS sm sm sm
0 4
0 2
0 0
ITEM: ATOMS id type tag x y z damage s11 s22 s33 s12 s13 s23 vx T ienergy 
1 1 1 0.0199969 0.0199996 0 0 -0.0198078 -0.0184729 -0.012257 -0.00688218 0 0 -0.0566215 0 0 
2 1 2 0.0199945 0.0599981 0 0 -0.0421389 -0.0229566 -0.0208425 -0.0103761 0 0 -0.174195 0 0 
3 1 3 0.0199942 0.0999981 0 0 -0.0674829 -0.0350788 -0.0328552 -0.0130019 0 0 -0.0988672 0 0 
4 1 4 0.0199945 0.139997 0 0 -0.0857051 -0.0389483 -0.0399389 -0.0120224 0 0 0.0256841 0 0 
5 1 5 0.0199925 0.179998 0 0 -0.103481 -0.0525248 -0.0499878 -0.0126289 0 0 0.0944421 0 0 
6 1 6 0.0199921 0.219997 0 0 -0.1137 -0.0575206 -0.0548654 -0.0141479 0 0 0.216864 0 0 
7 1 7 0.0199913 0.259997 0 0 -0.12461 -0.0659302 -0.0610607 -0.0186242 0 0 0.343803 0 0 
8 1 8 0.0199906 0.299995 0 0 -0.138974 -0.068435 -0.0664688 -0.0233964 0 0 0.275815 0 0 
9 1 9 0.0199884 0.339996 0 0 -0.156914 -0.0768714 -0.0749289 -0.024206 0 0 0.21251 0 0 
10 1 10 0.0199869 0.379996 0 0 -0.168641 -0.071728 -0.0770391 -0.0236807 0 0 0.0999249 0 0 
11 1 11 0.0199838 0.419998 0 0 -0.181647 -0.0780018 -0.0832234 -0.0158096 0 0 -0.0297588 0 0 
12 1 12 0.0199806 0.459999 0 0 -0.187005 -0.0737623 -0.0835841 -0.00993993 0 0 -0.0809495 0 0 
13 1 13 0.0199749 0.500002 0 0 -0.19652 -0.0805424 -0.0888132 0.00115363 0 0 -0.230512 0 0 
14 1 14 0.0199716 0.540004 0 0 -0.209484 -0.0809278 -0.0930991 0.00716791 0 0 0.00191862 0 0 
15 1 15 0.0199666 0.580007 0 0 -0.228697 -0.0924723 -0.102971 0.0224171 0 0 0.267329 0 0 
16 1 16 0.0199593 0.620008 0 0 -0.244277 -0.0942138 -0.108532 0.0306008 0 0 0.363484 0 0 
17 1 17 0.0199463 0.660011 0 0 -0.268244 -0.10608 -0.120035 0.0477593 0 0 -0.561503 0 0 
18 1 18 0.019941 0.700013 0 0 -0.280639 -0.107951 -0.124615 0.0623716 0 0 -1.4693 0 0 
19 1 19 0.0199431 0.740018 0 0 -0.297597 -0.124313 -0.135313 0.0776612 0 0 -1.34419 0 0 
20 1 20 0.0199524 0.78002 0 0 -0.311295 -0.125465 -0.140081 0.0876334 0 0 -0.778211 0 0 
21 1 21 0.0199581 0.820024 0 0 -0.323195 -0.145984 -0.150491 0.103697 0 0 -0.782683 0 0 
22 1 22 0.0199644 0.860025 0 0 -0.335044 -0.134932 -0.150747 0.102207 0 0 -0.375961 0 0 
23 1 23 0.0199645 0.90003 0 0 -0.381576 -0.168372 -0.176437 0.121078 0 0 -0.681716 0 0 
24 1 24 0.0199674 0.940032 0 0 -0.405845 -0.152461 -0.179132 0.130997 0 0 -0.334097 0 0 
25 1 25 0.0199496 0.98005 0 0 -0.595504 -0.146507 -0.248169 0.129429 0 0 -0.617642 0 0 
26 1 26 0.0599991 0.0199984 0 0 -0.0246032 -0.0336102 -0.0186419 -0.0118067 0 0 -0.0241753 0 0 
27 1 27 0.0599958 0.0599949 0 0 -0.0497206 -0.0375353 -0.0279499 -0.0163908 0 0 -0.145435 0 0 
28 1 28 0.0599886 0.0999937 0 0 -0.0712353 -0.0395316 -0.0354831 -0.0169357 0 0 -0.100229 0 0 
29 1 29 0.0599847 0.139993 0 0 -0.080298 -0.0360191 -0.0372596 -0.0135519 0 0 0.0918537 0 0 
30 1 30 0.0599825 0.179993 0 0 -0.0922512 -0.0514277 -0.0460369 -0.0122139 0 0 0.457141 0 0 
31 1 31 0.0599821 0.219991 0 0 -0.0931072 -0.0525456 -0.0466709 -0.0107154 0 0 0.617004 0 0 
32 1 32 0.0599796 0.25999 0 0 -0.107914 -0.0654663 -0.0555628 -0.0152965 0 0 0.811996 0 0 
33 1 33 0.0599768 0.299987 0 0 -0.121163 -0.062564 -0.0588777 -0.0173481 0 0 0.663817 0 0 
34 1 34 0.0599729 0.339987 0 0 -0.144419 -0.0693903 -0.0685265 -0.0160496 0 0 0.672359 0 0 
35 1 35 0.0599704 0.379988 0 0 -0.15995 -0.0555144 -0.069055 -0.0136369 0 0 0.713368 0 0 
36 1 36 0.0599682 0.419992 0 0 -0.182938 -0.0615523 -0.0783638 -0.00503646 0 0 0.695861 0 0 
37 1 37 0.0599697 0.459996 0 0 -0.195254 -0.0536963 -0.0797979 0.00058576 0 0 0.805298 0 0 
38 1 38 0.0599713 0.500002 0 0 -0.21247 -0.0617561 -0.0879078 0.0109645 0 0 0.795586 0 0 
39 1 39 0.0599725 0.540009 0 0 -0.222434 -0.0616672 -0.0910765 0.0126663 0 0 0.942429 0 0 
40 1 40 0.0599712 0.580017 0 0 -0.235577 -0.0612669 -0.0951653 0.025448 0 0 0.270861 0 0 
41 1 41 0.0599755 0.620026 0 0 -0.254063 -0.06666 -0.10283 0.0302543 0 0 0.460365 0 0 
42 1 42 0.0599805 0.660037 0 0 -0.276897 -0.0677574 -0.110509 0.0422174 0 0 1.18635 0 0 
43 1 43 0.0599832 0.700047 0 0 -0.300985 -0.0828148 -0.123077 0.0587853 0 0 1.8122 0 0 
44 1 44 0.0599767 0.740056 0 0 -0.314381 -0.0914946 -0.130164 0.0690806 0 0 1.85707 0 0 
45 1 45 0.0599658 0.780065 0 0 -0.320091 -0.098374 -0.134206 0.0819136 0 0 1.32951 0 0 
46 1 46 0.0599569 0.820072 0 0 -0.330913 -0.110269 -0.141498 0.101714 0 0 0.921733 0 0 
47 1 47 0.059948 0.860081 0 0 -0.348161 -0.108878 -0.146598 0.0960812 0 0 1.5017 0 0 
48 1 48 0.0599363 0.90009 0 0 -0.361541 -0.106918 -0.150254 0.124615 0 0 0.514868 0 0 
49 1 49 0.0599209 0.940106 0 0 -0.438606 -0.0648688 -0.161512 0.119159 0 0 0.460601 0 0 
50 1 50 0.059879 0.980136 0 0 -0.445977 0.0121863 -0.139137 0.0357815 0 0 -0.207589 0 0 
51 1 51 0.099994 0.0199972 0 0 -0.032729 -0.0489143 -0.0261659 -0.0193831 0 0 -0.220746 0 0 
52 1 52 0.0999844 0.0599932 0 0 -0.0465182 -0.0420104 -0.0283641 -0.0232423 0 0 -0.251444 0 0 
53 1 53 0.0999785 0.0999906 0 0 -0.0604986 -0.0392632 -0.0319561 -0.0196194 0 0 0.0290559 0 0 
54 1 54 0.0999744 0.13999 0 0 -0.0662671 -0.0304996 -0.0309957 -0.0155136 0 0 0.184917 0 0 
55 1 55 0.0999711 0.179989 0 0 -0.0752569 -0.0437655 -0.0381348 -0.0114042 0 0 0.493387 0 0 
56 1 56 0.0999689 0.219988 0 0 -0.081501 -0.0436167 -0.04009 -0.00980982 0 0 0.65059 0 0 
57 1 57 0.099966 0.259987 0 0 -0.0951635 -0.0553671 -0.0482399 -0.0125971 0 0 1.18788 0 0 
58 1 58 0.0999603 0.299986 0 0 -0.107115 -0.0499041 -0.0503181 -0.0138621 0 0 1.31212 0 0 
59 1 59 0.0999524 0.339987 0 0 -0.133867 -0.0553691 -0.0606502 -0.0131268 0 0 1.39 0 0 
60 1 60 0.0999433 0.379991 0 0 -0.156242 -0.0424976 -0.063695 -0.00936918 0 0 1.11568 0 0 
61 1 61 0.0999348 0.419996 0 0 -0.182094 -0.0471042 -0.0734624 0.00054251 0 0 0.782929 0 0 
62 1 62 0.0999263 0.460004 0 0 -0.196139 -0.0364437 -0.0745501 0.00515325 0 0 0.696041 0 0 
63 1 63 0.0999175 0.500014 0 0 -0.210834 -0.0405176 -0.0805719 0.0144974 0 0 0.371834 0 0 
64 1 64 0.0999098 0.540024 0 0 -0.225445 -0.0419402 -0.0857145 0.01443 0 0 0.729365 0 0 
65 1 65 0.0999005 0.580035 0 0 -0.24791 -0.0403359 -0.0924049 0.0225595 0 0 0.913275 0 0 
66 1 66 0.0998867 0.620047 0 0 -0.275786 -0.0483821 -0.103936 0.0275657 0 0 1.00327 0 0 
67 1 67 0.099869 0.660059 0 0 -0.278938 -0.0405558 -0.102434 0.0382993 0 0 0.0495856 0 0 
68 1 68 0.0998588 0.700074 0 0 -0.281943 -0.040486 -0.103379 0.055223 0 0 -0.864589 0 0 
69 1 69 0.0998592 0.740088 0 0 -0.294057 -0.0485023 -0.10984 0.0641 0 0 -0.717676 0 0 
70 1 70 0.0998649 0.780103 0 0 -0.3063 -0.0576635 -0.116712 0.0794653 0 0 -0.471625 0 0 
71 1 71 0.09987 0.820118 0 0 -0.320476 -0.0589949 -0.121688 0.0919615 0 0 -0.616358 0 0 
72 1 72 0.0998695 0.860133 0 0 -0.334338 -0.0614488 -0.126935 0.0892707 0 0 -0.357858 0 0 
73 1 73 0.0998627 0.900151 0 0 -0.374843 -0.0488312 -0.135879 0.108239 0 0 -0.845618 0 0 
74 1 74 0.0998433 0.940176 0 0 -0.38954 -0.004278 -0.126296 0.0542025 0 0 -0.461182 0 0 
75 1 75 0.099802 0.980203 0 0 -0.385706 -0.0270695 -0.132387 0.0327032 0 0 -1.57364 0 0 
76 1 76 0.139996 0.0199965 0 0 -0.0412574 -0.0640152 -0.0337376 -0.0248667 0 0 -0.0793407 0 0 
77 1 77 0.139986 0.0599907 0 0 -0.0493264 -0.044938 -0.0302016 -0.0267442 0 0 0.010831 0 0 
78 1 78 0.139975 0.0999883 0 0 -0.0573764 -0.0408791 -0.0314835 -0.021712 0 0 0.165169 0 0 
79 1 79 0.139967 0.139987 0 0 -0.0588169 -0.0275358 -0.0276637 -0.0133554 0 0 0.377623 0 0 
80 1 80 0.139964 0.179987 0 0 -0.0677653 -0.0350425 -0.0329368 -0.00642566 0 0 0.696181 0 0 
81 1 81 0.139962 0.219987 0 0 -0.0686533 -0.0277582 -0.0308862 -0.00502871 0 0 0.984129 0 0 
82 1 82 0.139957 0.259987 0 0 -0.081888 -0.0361285 -0.0378139 -0.006077 0 0 1.68208 0 0 
83 1 83 0.139949 0.299988 0 0 -0.0980569 -0.0349034 -0.0426076 -0.0108071 0 0 1.76058 0 0 
84 1 84 0.139938 0.339991 0 0 -0.124438 -0.0377969 -0.0519963 -0.0104459 0 0 1.83845 0 0 
85 1 85 0.139927 0.379995 0 0 -0.149864 -0.030897 -0.0579327 -0.00851404 0 0 1.70261 0 0 
86 1 86 0.139917 0.420002 0 0 -0.181376 -0.0358487 -0.0696229 0.00278789 0 0 1.55048 0 0 
87 1 87 0.139912 0.460011 0 0 -0.202576 -0.0297589 -0.0744701 0.0061916 0 0 1.6193 0 0 
88 1 88 0.139909 0.500022 0 0 -0.230287 -0.0356224 -0.0852424 0.0150137 0 0 1.54508 0 0 
89 1 89 0.139905 0.540034 0 0 -0.246918 -0.0319304 -0.0893927 0.0134521 0 0 1.4683 0 0 
90 1 90 0.139898 0.58005 0 0 -0.2536 -0.0260006 -0.0896319 0.0189303 0 0 0.876896 0 0 
91 1 91 0.139896 0.620067 0 0 -0.26328 -0.017991 -0.0901705 0.0198838 0 0 1.0135 0 0 
92 1 92 0.139897 0.660086 0 0 -0.290674 -0.0254776 -0.101363 0.0330811 0 0 1.60731 0 0 
93 1 93 0.139896 0.700104 0 0 -0.318738 -0.0320204 -0.112475 0.0434064 0 0 2.31844 0 0 
94 1 94 0.139886 0.740124 0 0 -0.326278 -0.0321314 -0.11493 0.0566517 0 0 2.12221 0 0 
95 1 95 0.139874 0.780143 0 0 -0.332367 -0.035986 -0.118125 0.0664371 0 0 1.45963 0 0 
96 1 96 0.139861 0.820163 0 0 -0.346941 -0.0311943 -0.121262 0.0774799 0 0 1.01758 0 0 
97 1 97 0.139847 0.860185 0 0 -0.366034 -0.0297269 -0.126922 0.0736444 0 0 1.14957 0 0 
98 1 98 0.139826 0.900209 0 0 -0.365412 -0.0150933 -0.122017 0.0733292 0 0 0.207918 0 0 
99 1 99 0.139797 0.940234 0 0 -0.35746 -0.00540757 -0.116372 0.0390139 0 0 0.231219 0 0 
100 1 100 0.139755 0.980261 0 0 -0.332712 0.00860492 -0.10393 0.0200585 0 0 -0.89598 0 0 
101 1 101 0.179991 0.0199962 0 0 -0.0422229 -0.0701377 -0.0359971 -0.0313473 0 0 -0.00713572 0 0 
102 1 102 0.179976 0.05999 0 0 -0.0456896 -0.0459917 -0.0293715 -0.0286035 0 0 0.223312 0 0 
103 1 103 0.179966 0.0999873 0 0 -0.0520865 -0.0365937 -0.0284167 -0.0220223 0 0 0.480476 0 0 
104 1 104 0.179959 0.139986 0 0 -0.0534583 -0.0241622 -0.0248673 -0.0129544 0 0 0.607967 0 0 
105 1 105 0.179955 0.179987 0 0 -0.0560646 -0.0164739 -0.0232345 -0.00411433 0 0 0.983713 0 0 
106 1 106 0.179951 0.219989 0 0 -0.062521 -0.0128689 -0.0241436 -0.00181315 0 0 1.30691 0 0 
107 1 107 0.179944 0.259992 0 0 -0.0799183 -0.0191177 -0.0317253 -0.00618687 0 0 1.95941 0 0 
108 1 108 0.179933 0.299996 0 0 -0.103681 -0.0237576 -0.0408383 -0.0116259 0 0 2.07633 0 0 
109 1 109 0.179917 0.340001 0 0 -0.134652 -0.0299581 -0.0527615 -0.0147904 0 0 2.23854 0 0 
110 1 110 0.179899 0.380007 0 0 -0.161694 -0.0320103 -0.0620872 -0.0110705 0 0 1.97204 0 0 
111 1 111 0.179882 0.420016 0 0 -0.186722 -0.0309798 -0.0697771 -0.00376475 0 0 1.6517 0 0 
112 1 112 0.179866 0.460026 0 0 -0.209521 -0.0268573 -0.0757681 0.00376902 0 0 1.34698 0 0 
113 1 113 0.17985 0.500039 0 0 -0.225863 -0.0232756 -0.0798633 0.00913357 0 0 1.09954 0 0 
114 1 114 0.179837 0.540054 0 0 -0.243999 -0.0129424 -0.0823647 0.0107257 0 0 1.30294 0 0 
115 1 115 0.179822 0.580071 0 0 -0.275969 -0.0208961 -0.0951748 0.0148493 0 0 1.46974 0 0 
116 1 116 0.179802 0.620088 0 0 -0.296437 -0.0170142 -0.1005 0.0184416 0 0 1.5555 0 0 
117 1 117 0.17978 0.660108 0 0 -0.290288 -0.00424391 -0.0944267 0.0313698 0 0 0.349436 0 0 
118 1 118 0.179766 0.700129 0 0 -0.288818 -0.00132478 -0.0930235 0.0410986 0 0 -0.485679 0 0 
119 1 119 0.179763 0.740152 0 0 -0.297438 0.00946121 -0.0923261 0.0551449 0 0 -0.88276 0 0 
120 1 120 0.179766 0.780176 0 0 -0.319032 -0.00333377 -0.103364 0.0588076 0 0 -0.585094 0 0 
121 1 121 0.179767 0.820201 0 0 -0.327405 0.00978094 -0.101839 0.0635296 0 0 -0.837964 0 0 
122 1 122 0.179761 0.860228 0 0 -0.331823 0.0101034 -0.10315 0.0540287 0 0 -0.990266 0 0 
123 1 123 0.179749 0.900255 0 0 -0.344127 0.00810406 -0.10774 0.05122 0 0 -1.23289 0 0 
124 1 124 0.179727 0.940283 0 0 -0.350476 0.00406693 -0.111097 0.0202563 0 0 -0.99699 0 0 
125 1 125 0.179692 0.980309 0 0 -0.318668 -0.000620114 -0.102391 0.0167695 0 0 -2.06561 0 0 
126 1 126 0.219993 0.0199963 0 0 -0.0378234 -0.0652 -0.0330047 -0.0343056 0 0 0.404701 0 0 
127 1 127 0.219979 0.0599904 0 0 -0.0391179 -0.0427476 -0.0262209 -0.0275868 0 0 0.788669 0 0 
128 1 128 0.219964 0.0999873 0 0 -0.045945 -0.0343542 -0.0257243 -0.0215515 0 0 0.826202 0 0 
129 1 129 0.219953 0.139987 0 0 -0.0515488 -0.0180628 -0.0222989 -0.0110815 0 0 0.898532 0 0 
130 1 130 0.219948 0.179989 0 0 -0.0600903 -0.00624685 -0.0212464 -0.00321936 0 0 1.29838 0 0 
131 1 131 0.219942 0.219993 0 0 -0.0795464 -0.00698446 -0.0277129 -0.00388892 0 0 1.44908 0 0 
132 1 132 0.219933 0.259998 0 0 -0.103626 -0.0156148 -0.0381983 -0.00860625 0 0 2.07358 0 0 
133 1 133 0.219919 0.300004 0 0 -0.120442 -0.0152231 -0.043472 -0.015416 0 0 2.3006 0 0 
134 1 134 0.2199 0.340011 0 0 -0.144904 -0.0274503 -0.0552442 -0.0212071 0 0 2.46805 0 0 
135 1 135 0.219879 0.380018 0 0 -0.171127 -0.0298218 -0.0644144 -0.0171724 0 0 2.37133 0 0 
136 1 136 0.219861 0.420027 0 0 -0.204117 -0.0359109 -0.0769447 -0.0111494 0 0 2.314 0 0 
137 1 137 0.219847 0.460037 0 0 -0.231287 -0.0278077 -0.0830625 -0.0014495 0 0 2.2189 0 0 
138 1 138 0.219837 0.500052 0 0 -0.266009 -0.0319666 -0.0955399 0.00550681 0 0 2.20376 0 0 
139 1 139 0.219826 0.540068 0 0 -0.281622 -0.0154805 -0.0952566 0.00808621 0 0 2.05508 0 0 
140 1 140 0.219814 0.580088 0 0 -0.284539 -0.00962705 -0.0943136 0.0132205 0 0 1.30339 0 0 
141 1 141 0.219806 0.62011 0 0 -0.286813 0.0017716 -0.0913869 0.0146632 0 0 1.33108 0 0 
142 1 142 0.219803 0.660134 0 0 -0.31508 -0.00446475 -0.102456 0.0280856 0 0 1.61863 0 0 
143 1 143 0.219798 0.700158 0 0 -0.345826 -0.0122594 -0.114827 0.0297054 0 0 2.36691 0 0 
144 1 144 0.219784 0.740184 0 0 -0.353276 -0.00549011 -0.115045 0.0445907 0 0 1.56051 0 0 
145 1 145 0.219769 0.78021 0 0 -0.357327 0.00110518 -0.114227 0.041072 0 0 0.923101 0 0 
146 1 146 0.219751 0.820238 0 0 -0.373629 -0.000633765 -0.120015 0.043913 0 0 0.303492 0 0 
147 1 147 0.219734 0.860265 0 0 -0.380772 -0.00194898 -0.122732 0.0377671 0 0 0.141234 0 0 
148 1 148 0.219711 0.900295 0 0 -0.367739 0.00797152 -0.11536 0.0286632 0 0 -0.27303 0 0 
149 1 149 0.219684 0.940322 0 0 -0.341835 0.00369841 -0.108442 0.00837424 0 0 -0.413934 0 0 
150 1 150 0.219652 0.980348 0 0 -0.307085 0.0101459 -0.0952195 0.00715618 0 0 -0.97129 0 0 
151 1 151 0.259989 0.0199973 0 0 -0.0299854 -0.0524182 -0.0263984 -0.0389255 0 0 0.569857 0 0 
152 1 152 0.259969 0.059992 0 0 -0.0401118 -0.0431526 -0.0266681 -0.0327844 0 0 1.14173 0 0 
153 1 153 0.259956 0.0999896 0 0 -0.0499844 -0.031646 -0.026147 -0.0238964 0 0 1.3965 0 0 
154 1 154 0.259945 0.13999 0 0 -0.0573931 -0.0143739 -0.0229858 -0.0137508 0 0 1.3518 0 0 
155 1 155 0.259936 0.179993 0 0 -0.0751242 -0.00546219 -0.0258122 -0.00716181 0 0 1.4255 0 0 
156 1 156 0.259926 0.219999 0 0 -0.0967066 -0.00296866 -0.0319249 -0.0100164 0 0 1.50108 0 0 
157 1 157 0.259914 0.260007 0 0 -0.1189 -0.00738695 -0.0404543 -0.0134984 0 0 2.01905 0 0 
158 1 158 0.259896 0.300015 0 0 -0.144889 -0.01705 -0.0518918 -0.023059 0 0 2.28745 0 0 
159 1 159 0.259873 0.340023 0 0 -0.177014 -0.0336581 -0.0675262 -0.0301842 0 0 2.51536 0 0 
160 1 160 0.259847 0.380032 0 0 -0.199647 -0.038986 -0.0764992 -0.0267633 0 0 2.39057 0 0 
161 1 161 0.259821 0.420042 0 0 -0.222427 -0.0361034 -0.082883 -0.0229999 0 0 2.24867 0 0 
162 1 162 0.259796 0.460055 0 0 -0.243543 -0.0282069 -0.0871289 -0.0110728 0 0 1.8993 0 0 
163 1 163 0.259773 0.500071 0 0 -0.255509 -0.00971489 -0.0850377 -0.00613697 0 0 1.72167 0 0 
164 1 164 0.259751 0.54009 0 0 -0.278129 -0.00327431 -0.090224 0.000692994 0 0 1.63653 0 0 
165 1 165 0.259731 0.580112 0 0 -0.305949 -0.0023358 -0.0988463 0.00889283 0 0 1.66126 0 0 
166 1 166 0.259707 0.620134 0 0 -0.324541 -0.00362004 -0.105224 0.0118014 0 0 1.66279 0 0 
167 1 167 0.259681 0.660157 0 0 -0.313429 0.00489893 -0.0989206 0.0280664 0 0 0.0925258 0 0 
168 1 168 0.259663 0.700181 0 0 -0.299139 0.0160476 -0.0907567 0.0280031 0 0 -0.78881 0 0 
169 1 169 0.259656 0.740208 0 0 -0.315957 0.0158378 -0.0962212 0.0393196 0 0 -1.61773 0 0 
170 1 170 0.259655 0.780235 0 0 -0.340989 0.0155351 -0.104351 0.0306796 0 0 -1.36095 0 0 
171 1 171 0.259651 0.820264 0 0 -0.346268 0.0159246 -0.105915 0.0329405 0 0 -1.91837 0 0 
172 1 172 0.259644 0.860294 0 0 -0.346507 0.017371 -0.105534 0.0235236 0 0 -2.10184 0 0 
173 1 173 0.259632 0.900323 0 0 -0.355447 0.0157854 -0.108907 0.0148121 0 0 -1.89178 0 0 
174 1 174 0.259614 0.940352 0 0 -0.355161 -0.000558809 -0.114085 0.00418892 0 0 -1.61858 0 0 
175 1 175 0.259591 0.980377 0 0 -0.322604 0.00277615 -0.102562 0.00336312 0 0 -1.61753 0 0 
176 1 176 0.299992 0.0199976 0 0 -0.0277558 -0.0437739 -0.0229138 -0.0431849 0 0 0.722635 0 0 
177 1 177 0.299973 0.0599932 0 0 -0.0389079 -0.038599 -0.0248252 -0.0374199 0 0 1.35628 0 0 
178 1 178 0.299953 0.0999918 0 0 -0.0483759 -0.0237953 -0.0231138 -0.0285591 0 0 1.53542 0 0 
179 1 179 0.299937 0.139993 0 0 -0.0710121 -0.015835 -0.0278176 -0.0228329 0 0 1.45016 0 0 
180 1 180 0.299924 0.179997 0 0 -0.0994055 -0.0102029 -0.0351153 -0.0169778 0 0 1.62646 0 0 
181 1 181 0.299911 0.220004 0 0 -0.124596 -0.00557609 -0.0417034 -0.018476 0 0 1.72601 0 0 
182 1 182 0.299895 0.260014 0 0 -0.154418 -0.0119216 -0.0532978 -0.0232393 0 0 2.09701 0 0 
183 1 183 0.299874 0.300023 0 0 -0.183174 -0.0267495 -0.067277 -0.0313423 0 0 2.24699 0 0 
184 1 184 0.299848 0.340033 0 0 -0.202836 -0.0349921 -0.07623 -0.0376845 0 0 2.49961 0 0 
185 1 185 0.299821 0.380042 0 0 -0.227054 -0.0448264 -0.0871575 -0.0319442 0 0 2.63025 0 0 
186 1 186 0.299795 0.420053 0 0 -0.249579 -0.038698 -0.0924241 -0.0308976 0 0 2.82981 0 0 
187 1 187 0.299772 0.460067 0 0 -0.278389 -0.0367618 -0.101055 -0.0154348 0 0 2.59757 0 0 
188 1 188 0.299753 0.500084 0 0 -0.302607 -0.0208942 -0.10374 -0.0125333 0 0 2.61452 0 0 
189 1 189 0.299734 0.540105 0 0 -0.321287 -0.0108306 -0.1065 -0.00589424 0 0 2.22224 0 0 
190 1 190 0.299717 0.580129 0 0 -0.3161 0.000974094 -0.10104 0.00353511 0 0 1.21679 0 0 
191 1 191 0.299705 0.620155 0 0 -0.310926 0.0115623 -0.0959813 0.000405025 0 0 1.14198 0 0 
192 1 192 0.299699 0.660182 0 0 -0.346833 -0.00890138 -0.114071 0.0126165 0 0 1.05962 0 0 
193 1 193 0.299691 0.700207 0 0 -0.379459 -0.0165554 -0.127002 0.00920407 0 0 1.61481 0 0 
194 1 194 0.299674 0.740234 0 0 -0.389318 -0.0218209 -0.131859 0.0195067 0 0 0.591766 0 0 
195 1 195 0.299653 0.78026 0 0 -0.38562 -0.00659146 -0.125781 0.0100543 0 0 0.00377546 0 0 
196 1 196 0.299632 0.820289 0 0 -0.401177 -0.00994897 -0.131849 0.0169606 0 0 -0.764706 0 0 
197 1 197 0.299613 0.860317 0 0 -0.410376 -0.0123948 -0.135596 0.00893334 0 0 -0.642038 0 0 
198 1 198 0.299592 0.900347 0 0 -0.390938 -0.000529581 -0.12554 0.00566911 0 0 -0.883267 0 0 
199 1 199 0.29957 0.940375 0 0 -0.361325 -0.00244232 -0.116667 0.000508107 0 0 -1.09193 0 0 
200 1 200 0.299548 0.980402 0 0 -0.341308 0.000691097 -0.109232 -0.00191585 0 0 -0.704361 0 0 
201 1 201 0.339987 0.0199983 0 0 -0.0239156 -0.03547 -0.0190213 -0.0483102 0 0 0.647341 0 0 
202 1 202 0.339962 0.0599948 0 0 -0.0454354 -0.0374135 -0.026538 -0.0456096 0 0 1.37332 0 0 
203 1 203 0.339943 0.0999941 0 0 -0.0690976 -0.0299631 -0.0317338 -0.0390525 0 0 1.85471 0 0 
204 1 204 0.339924 0.139996 0 0 -0.0939774 -0.023804 -0.0377346 -0.0366454 0 0 1.78846 0 0 
205 1 205 0.339905 0.180001 0 0 -0.12396 -0.0151506 -0.044575 -0.0324007 0 0 1.85008 0 0 
206 1 206 0.339886 0.220009 0 0 -0.158655 -0.0133604 -0.0551239 -0.0327254 0 0 1.66066 0 0 
207 1 207 0.339866 0.26002 0 0 -0.186121 -0.017117 -0.0651336 -0.0365106 0 0 1.80453 0 0 
208 1 208 0.339842 0.300031 0 0 -0.210876 -0.0285815 -0.07675 -0.0420858 0 0 2.05684 0 0 
209 1 209 0.339813 0.340044 0 0 -0.229915 -0.035598 -0.085111 -0.0473027 0 0 2.49456 0 0 
210 1 210 0.339781 0.380055 0 0 -0.244835 -0.0413123 -0.0917313 -0.04222 0 0 2.62079 0 0 
211 1 211 0.339748 0.420069 0 0 -0.25778 -0.0339018 -0.0935112 -0.0436898 0 0 2.72206 0 0 
212 1 212 0.339714 0.460085 0 0 -0.275627 -0.0244588 -0.096214 -0.0300266 0 0 2.31788 0 0 
213 1 213 0.339683 0.500104 0 0 -0.286765 -0.00697019 -0.0941811 -0.0258093 0 0 1.8908 0 0 
214 1 214 0.339654 0.540126 0 0 -0.299184 0.00532168 -0.0942182 -0.0184389 0 0 1.58781 0 0 
215 1 215 0.339629 0.58015 0 0 -0.331801 0.000517098 -0.106225 -0.00692436 0 0 1.28569 0 0 
216 1 216 0.339602 0.620174 0 0 -0.352176 -0.00649563 -0.115017 -0.00462581 0 0 0.993497 0 0 
217 1 217 0.339574 0.660199 0 0 -0.332834 -0.00106123 -0.107063 0.00874167 0 0 -0.633521 0 0 
218 1 218 0.339553 0.700224 0 0 -0.312823 0.0157394 -0.0952496 0.00417215 0 0 -1.55276 0 0 
219 1 219 0.339542 0.74025 0 0 -0.338617 0.0031408 -0.107569 0.0130852 0 0 -2.41457 0 0 
220 1 220 0.339536 0.780277 0 0 -0.369236 -0.00207971 -0.119073 0.00420848 0 0 -2.07749 0 0 
221 1 221 0.339528 0.820306 0 0 -0.372278 0.00448824 -0.117938 0.0137459 0 0 -2.78124 0 0 
222 1 222 0.33952 0.860336 0 0 -0.371059 0.00711277 -0.116714 0.00453403 0 0 -2.55389 0 0 
223 1 223 0.339509 0.900365 0 0 -0.380845 0.00163547 -0.12161 0.00503161 0 0 -2.22066 0 0 
224 1 224 0.339497 0.940394 0 0 -0.383391 -0.00818082 -0.125594 0.00448371 0 0 -1.803 0 0 
225 1 225 0.339481 0.980421 0 0 -0.367874 -0.0047706 -0.119511 -0.0012163 0 0 -1.20852 0 0 
226 1 226 0.379989 0.0199984 0 0 -0.0307804 -0.0354233 -0.0212042 -0.0562937 0 0 0.512693 0 0 
227 1 227 0.379963 0.0599951 0 0 -0.056709 -0.0415599 -0.031479 -0.0551058 0 0 1.07713 0 0 
228 1 228 0.379936 0.0999948 0 0 -0.0758284 -0.0299254 -0.0338792 -0.0508967 0 0 1.65964 0 0 
229 1 229 0.37991 0.139997 0 0 -0.111762 -0.0322545 -0.0461465 -0.0501392 0 0 1.7075 0 0 
230 1 230 0.379887 0.180002 0 0 -0.146748 -0.0201569 -0.0534887 -0.0495553 0 0 1.88505 0 0 
231 1 231 0.379863 0.220011 0 0 -0.18514 -0.022821 -0.0666562 -0.0477167 0 0 1.74395 0 0 
232 1 232 0.379838 0.260023 0 0 -0.212607 -0.0183096 -0.0740169 -0.0497227 0 0 1.96133 0 0 
233 1 233 0.37981 0.300036 0 0 -0.238473 -0.0309985 -0.0863842 -0.0522117 0 0 2.22425 0 0 
234 1 234 0.37978 0.34005 0 0 -0.249038 -0.0301507 -0.0895039 -0.0557701 0 0 2.64103 0 0 
235 1 235 0.379748 0.380063 0 0 -0.26891 -0.0383723 -0.0985155 -0.0512369 0 0 2.87906 0 0 
236 1 236 0.379715 0.420078 0 0 -0.286931 -0.0363615 -0.103655 -0.0515466 0 0 3.07148 0 0 
237 1 237 0.379685 0.460095 0 0 -0.30272 -0.0271596 -0.105769 -0.0382325 0 0 2.9584 0 0 
238 1 238 0.379658 0.500115 0 0 -0.325618 -0.0170381 -0.109874 -0.0335487 0 0 2.73675 0 0 
239 1 239 0.379633 0.540138 0 0 -0.344309 -0.0170065 -0.115862 -0.0233588 0 0 2.03593 0 0 
240 1 240 0.379611 0.580163 0 0 -0.331155 0.00238087 -0.105417 -0.0159443 0 0 0.913608 0 0 
241 1 241 0.379597 0.62019 0 0 -0.332391 0.00277597 -0.105693 -0.0161563 0 0 0.501441 0 0 
242 1 242 0.379589 0.660216 0 0 -0.380696 -0.0255286 -0.130283 -0.00810738 0 0 0.414007 0 0 
243 1 243 0.379577 0.700242 0 0 -0.425391 -0.0358372 -0.147946 -0.0154592 0 0 1.01421 0 0 
244 1 244 0.379555 0.740269 0 0 -0.435325 -0.0411114 -0.152828 -0.00481863 0 0 0.0200251 0 0 
245 1 245 0.37953 0.780296 0 0 -0.42569 -0.0261426 -0.144927 -0.0129358 0 0 -0.293674 0 0 
246 1 246 0.379505 0.820325 0 0 -0.44308 -0.0271745 -0.150843 0.00198079 0 0 -0.977648 0 0 
247 1 247 0.379486 0.860353 0 0 -0.452675 -0.0287853 -0.154452 -0.00183813 0 0 -0.668292 0 0 
248 1 248 0.379466 0.900383 0 0 -0.424455 -0.018003 -0.141924 0.00685898 0 0 -1.03856 0 0 
249 1 249 0.379448 0.940412 0 0 -0.394508 -0.00520799 -0.128212 0.00624089 0 0 -1.17646 0 0 
250 1 250 0.37943 0.980441 0 0 -0.393279 -0.00842013 -0.128839 5.01587e-05 0 0 -0.846857 0 0 
251 1 251 0.419982 0.0199981 0 0 -0.0323636 -0.0400425 -0.0231916 -0.0672787 0 0 0.19007 0 0 
252 1 252 0.41995 0.0599948 0 0 -0.066082 -0.0455475 -0.0357606 -0.0674428 0 0 0.518237 0 0 
253 1 253 0.419922 0.0999946 0 0 -0.0997582 -0.0394972 -0.0446194 -0.0665341 0 0 1.50372 0 0 
254 1 254 0.419893 0.139996 0 0 -0.139468 -0.0459742 -0.059432 -0.0671716 0 0 1.76202 0 0 
255 1 255 0.419861 0.180002 0 0 -0.170287 -0.0292776 -0.0639646 -0.0688251 0 0 2.01207 0 0 
256 1 256 0.419831 0.220012 0 0 -0.207086 -0.0317095 -0.0765491 -0.0635769 0 0 1.8916 0 0 
257 1 257 0.419802 0.260024 0 0 -0.224647 -0.0175756 -0.0776467 -0.0645887 0 0 1.90988 0 0 
258 1 258 0.419771 0.300039 0 0 -0.246301 -0.0231428 -0.0863794 -0.0659531 0 0 2.05495 0 0 
259 1 259 0.419738 0.340055 0 0 -0.261078 -0.0229852 -0.0910705 -0.0682448 0 0 2.49139 0 0 
260 1 260 0.419702 0.380072 0 0 -0.270623 -0.0226281 -0.0940157 -0.0665676 0 0 2.86803 0 0 
261 1 261 0.419663 0.42009 0 0 -0.280066 -0.0176549 -0.0954504 -0.0664182 0 0 3.04805 0 0 
262 1 262 0.419623 0.460109 0 0 -0.294148 -0.0125955 -0.098345 -0.054971 0 0 2.739 0 0 
263 1 263 0.419584 0.500131 0 0 -0.299894 0.000955741 -0.095842 -0.0503283 0 0 2.11951 0 0 
264 1 264 0.41955 0.540155 0 0 -0.317355 -0.00177503 -0.10232 -0.0385537 0 0 1.52633 0 0 
265 1 265 0.41952 0.580179 0 0 -0.359857 -0.0132212 -0.119636 -0.0269057 0 0 1.15071 0 0 
266 1 266 0.41949 0.620203 0 0 -0.383051 -0.0194175 -0.129078 -0.0188225 0 0 0.612428 0 0 
267 1 267 0.419459 0.660228 0 0 -0.362425 -0.0144982 -0.120876 -0.00796487 0 0 -0.985842 0 0 
268 1 268 0.419434 0.700253 0 0 -0.340379 0.0059625 -0.107231 -0.0135152 0 0 -1.90469 0 0 
269 1 269 0.419418 0.74028 0 0 -0.369044 -0.00522705 -0.120021 -0.00219269 0 0 -2.70189 0 0 
270 1 270 0.419408 0.780308 0 0 -0.403174 -0.0117132 -0.133064 -0.00973273 0 0 -2.08585 0 0 
271 1 271 0.419397 0.820338 0 0 -0.401557 -0.00236441 -0.129543 0.00527929 0 0 -2.61724 0 0 
272 1 272 0.419388 0.860369 0 0 -0.392503 0.00343117 -0.124786 0.00422959 0 0 -2.36259 0 0 
273 1 273 0.419379 0.900399 0 0 -0.405046 -0.00318934 -0.130938 0.0138755 0 0 -2.0707 0 0 
274 1 274 0.419371 0.94043 0 0 -0.415447 -0.0044954 -0.134708 0.0120735 0 0 -1.47929 0 0 
275 1 275 0.419356 0.980461 0 0 -0.410579 -0.00747565 -0.13409 0.00611758 0 0 -1.4855 0 0 
276 1 276 0.459983 0.0199972 0 0 -0.0523292 -0.0594769 -0.0358232 -0.0805494 0 0 0.134788 0 0 
277 1 277 0.459948 0.0599928 0 0 -0.0879079 -0.0563951 -0.0462364 -0.0790284 0 0 0.315954 0 0 
278 1 278 0.459911 0.0999926 0 0 -0.110651 -0.045751 -0.0501183 -0.0798921 0 0 1.2863 0 0 
279 1 279 0.459874 0.139994 0 0 -0.146474 -0.0496485 -0.0628589 -0.0819178 0 0 1.57471 0 0 
280 1 280 0.459837 0.18 0 0 -0.175572 -0.0324401 -0.0666746 -0.0846601 0 0 1.84859 0 0 
281 1 281 0.459802 0.220009 0 0 -0.210643 -0.0333819 -0.078226 -0.0775389 0 0 1.75902 0 0 
282 1 282 0.459768 0.260022 0 0 -0.237694 -0.0216124 -0.0831277 -0.077197 0 0 1.86679 0 0 
283 1 283 0.459734 0.300037 0 0 -0.258006 -0.0189247 -0.088781 -0.0754899 0 0 2.18543 0 0 
284 1 284 0.4597 0.340055 0 0 -0.266761 -0.010994 -0.0890453 -0.0763672 0 0 2.696 0 0 
285 1 285 0.459664 0.380073 0 0 -0.285135 -0.0142721 -0.095991 -0.074051 0 0 3.12522 0 0 
286 1 286 0.459626 0.420094 0 0 -0.298778 -0.00801716 -0.0983609 -0.0737915 0 0 3.41452 0 0 
287 1 287 0.45959 0.460115 0 0 -0.322487 -0.0150251 -0.108222 -0.0641444 0 0 3.3122 0 0 
288 1 288 0.459557 0.500138 0 0 -0.349681 -0.0172166 -0.117657 -0.0562217 0 0 2.87598 0 0 
289 1 289 0.459526 0.540162 0 0 -0.363339 -0.0197269 -0.122843 -0.0440421 0 0 2.15605 0 0 
290 1 290 0.4595 0.580187 0 0 -0.350972 -0.00821215 -0.115175 -0.0368451 0 0 0.991507 0 0 
291 1 291 0.459481 0.620214 0 0 -0.359106 -0.00948288 -0.118198 -0.0308433 0 0 0.191841 0 0 
292 1 292 0.459469 0.660241 0 0 -0.419414 -0.0338324 -0.145381 -0.0276181 0 0 0.262954 0 0 
293 1 293 0.459452 0.700269 0 0 -0.47944 -0.0547864 -0.171394 -0.0326304 0 0 0.976437 0 0 
294 1 294 0.459426 0.740297 0 0 -0.485631 -0.0525611 -0.172665 -0.0177933 0 0 0.0762119 0 0 
295 1 295 0.459396 0.780326 0 0 -0.470248 -0.0356455 -0.162293 -0.02218 0 0 -0.0595557 0 0 
296 1 296 0.459369 0.820356 0 0 -0.486331 -0.0374215 -0.168029 -0.00220878 0 0 -0.611724 0 0 
297 1 297 0.459349 0.860387 0 0 -0.493709 -0.0348666 -0.169588 0.003391 0 0 -0.389388 0 0 
298 1 298 0.459331 0.900419 0 0 -0.466232 -0.0233996 -0.157077 0.0182147 0 0 -0.79484 0 0 
299 1 299 0.459316 0.94045 0 0 -0.435672 -0.00211158 -0.140435 0.015522 0 0 -0.966864 0 0 
300 1 300 0.459299 0.980483 0 0 -0.432928 -0.00976457 -0.142001 0.011958 0 0 -1.61222 0 0 
301 1 301 0.499976 0.0199964 0 0 -0.0539784 -0.0726117 -0.0405638 -0.0958547 0 0 -0.155353 0 0 
302 1 302 0.499932 0.0599909 0 0 -0.0887554 -0.0599763 -0.0476579 -0.0917352 0 0 -0.241561 0 0 
303 1 303 0.499893 0.0999902 0 0 -0.125487 -0.0533418 -0.0573118 -0.0927484 0 0 0.890716 0 0 
304 1 304 0.499852 0.139992 0 0 -0.160412 -0.0568371 -0.069636 -0.0941277 0 0 1.37786 0 0 
305 1 305 0.49981 0.179998 0 0 -0.184451 -0.0392064 -0.0716936 -0.0982141 0 0 1.84076 0 0 
306 1 306 0.499768 0.220006 0 0 -0.215912 -0.0377497 -0.0813179 -0.0896579 0 0 1.87854 0 0 
307 1 307 0.49973 0.260019 0 0 -0.231347 -0.0166265 -0.0794901 -0.0884298 0 0 1.92519 0 0 
308 1 308 0.499692 0.300036 0 0 -0.251824 -0.0108257 -0.084196 -0.0843154 0 0 2.00747 0 0 
309 1 309 0.499654 0.340055 0 0 -0.269636 0.000192383 -0.0863753 -0.088309 0 0 2.44738 0 0 
310 1 310 0.499613 0.380076 0 0 -0.288904 -0.000609307 -0.0928126 -0.0876569 0 0 2.76526 0 0 
311 1 311 0.49957 0.4201 0 0 -0.298631 0.0061351 -0.0937708 -0.0870689 0 0 2.89461 0 0 
312 1 312 0.499524 0.460123 0 0 -0.313326 0.00187364 -0.0998597 -0.0824578 0 0 2.8918 0 0 
313 1 313 0.499479 0.500148 0 0 -0.323442 0.00131708 -0.103288 -0.0725744 0 0 2.26168 0 0 
314 1 314 0.49944 0.540173 0 0 -0.345423 -0.00627061 -0.112774 -0.0595107 0 0 1.77428 0 0 
315 1 315 0.499405 0.580198 0 0 -0.401736 -0.0301876 -0.138529 -0.0505955 0 0 1.50189 0 0 
316 1 316 0.49937 0.620223 0 0 -0.435939 -0.0407485 -0.152907 -0.035057 0 0 0.72417 0 0 
317 1 317 0.499334 0.66025 0 0 -0.406866 -0.0181131 -0.136302 -0.0249351 0 0 -0.847671 0 0 
318 1 318 0.499302 0.700277 0 0 -0.376853 0.00196184 -0.120222 -0.0272239 0 0 -1.91788 0 0 
319 1 319 0.499282 0.740307 0 0 -0.39982 -0.000489147 -0.12838 -0.0124551 0 0 -2.71265 0 0 
320 1 320 0.499269 0.780338 0 0 -0.432714 -0.00740277 -0.141168 -0.0143565 0 0 -2.03408 0 0 
321 1 321 0.499255 0.820371 0 0 -0.42688 -0.00218202 -0.137614 0.00422299 0 0 -2.43578 0 0 
322 1 322 0.499245 0.860403 0 0 -0.413463 0.0133222 -0.128335 0.010649 0 0 -2.30166 0 0 
323 1 323 0.499238 0.900437 0 0 -0.434971 0.00267668 -0.138659 0.0226089 0 0 -2.0273 0 0 
324 1 324 0.499232 0.940471 0 0 -0.447582 0.00156536 -0.143073 0.0198598 0 0 -1.50123 0 0 
325 1 325 0.499219 0.980505 0 0 -0.435582 -0.00184798 -0.140308 0.018774 0 0 -2.30266 0 0 
326 1 326 0.539976 0.0199954 0 0 -0.0729797 -0.0927125 -0.0531015 -0.11175 0 0 -0.00453078 0 0 