ITEM: TIMESTEP
0
ITEM: NUMBER OF ATOMS
7127
ITEM: BOX BOUNDS sm sm sm
0 4
0 2
0 0
ITEM: ATOMS id type tag x y z vx 
0 1 0 0 0 0 0 
1 1 1 0 0.04 0 0 
2 1 2 0 0.08 0 0 
3 1 3 0 0.12 0 0 
4 1 4 0 0.16 0 0 
5 1 5 0 0.2 0 0 
6 1 6 0 0.24 0 0 
7 1 7 0 0.28 0 0 
8 1 8 0 0.32 0 0 
9 1 9 0 0.36 0 0 
10 1 10 0 0.4 0 0 
11 1 11 0 0.44 0 0 
12 1 12 0 0.48 0 0 
13 1 13 0 0.52 0 0 
14 1 14 0 0.56 0 0 
15 1 15 0 0.6 0 0 
16 1 16 0 0.64 0 0 
17 1 17 0 0.68 0 0 
18 1 18 0 0.72 0 0 
19 1 19 0 0.76 0 0 
20 1 20 0 0.8 0 0 
21 1 21 0 0.84 0 0 
22 1 22 0 0.88 0 0 
23 1 23 0 0.92 0 0 
24 1 24 0 0.96 0 0 
25 1 25 0 1 0 0 
26 1 26 0.04 0 0 0 
27 1 27 0.0399941 0.0399975 0 -0.103904 
28 1 28 0.039996 0.0799967 0 -0.265162 
29 1 29 0.0399995 0.119997 0 -0.40006 
30 1 30 0.0400044 0.159995 0 -0.533747 
31 1 31 0.0400102 0.199997 0 -0.478412 
32 1 32 0.0400166 0.239999 0 -0.31732 
33 1 33 0.0400252 0.279999 0 -0.297786 
34 1 34 0.0400291 0.319996 0 -0.183706 
35 1 35 0.0400315 0.35999 0 -0.213284 
36 1 36 0.0400329 0.399982 0 -0.243263 
37 1 37 0.0400327 0.439974 0 -0.356051 
38 1 38 0.0400304 0.479964 0 -0.250489 
39 1 39 0.0400262 0.519958 0 -0.143365 
40 1 40 0.0400257 0.559951 0 -0.0883503 
41 1 41 0.0400208 0.599949 0 -0.249797 
42 1 42 0.0400228 0.639947 0 -0.344743 
43 1 43 0.0400173 0.679948 0 -0.325432 
44 1 44 0.0400227 0.71995 0 -0.187745 
45 1 45 0.040016 0.759958 0 0.147712 
46 1 46 0.0400174 0.799964 0 -0.0865391 
47 1 47 0.0400179 0.839977 0 0.0490607 
48 1 48 0.0400134 0.879987 0 -0.0292972 
49 1 49 0.0400145 0.919996 0 -0.485358 
50 1 50 0.0400111 0.959994 0 -0.746769 
51 1 51 0.0400024 0.999993 0 -0.938133 
52 1 52 0.08 0 0 0 
53 1 53 0.0799895 0.0399953 0 -0.336654 
54 1 54 0.0799938 0.079993 0 -0.648096 
55 1 55 0.0800002 0.119994 0 -0.818345 
56 1 56 0.0800081 0.159991 0 -0.947123 
57 1 57 0.0800176 0.199994 0 -0.836367 
58 1 58 0.0800322 0.239993 0 -0.502313 
59 1 59 0.0800466 0.279989 0 -0.210443 
60 1 60 0.0800591 0.319981 0 0.059919 
61 1 61 0.080064 0.35997 0 -0.178108 
62 1 62 0.0800699 0.399956 0 -0.385398 
63 1 63 0.0800665 0.439944 0 -0.482235 
64 1 64 0.0800657 0.479929 0 -0.158196 
65 1 65 0.0800536 0.51992 0 0.140374 
66 1 66 0.0800539 0.559911 0 0.0777039 
67 1 67 0.0800403 0.599908 0 -0.399181 
68 1 68 0.0800429 0.639908 0 -0.890347 
69 1 69 0.080032 0.679911 0 -0.821979 
70 1 70 0.0800335 0.719918 0 -0.463303 
71 1 71 0.0800277 0.759931 0 0.2828 
72 1 72 0.0800222 0.799941 0 0.342181 
73 1 73 0.0800213 0.83996 0 0.288075 
74 1 74 0.0800141 0.879973 0 -0.152962 
75 1 75 0.0800239 0.919986 0 -0.908967 
76 1 76 0.0800184 0.959995 0 -1.69559 
77 1 77 0.0800153 0.999989 0 -2.37441 
78 1 78 0.12 0 0 0 
79 1 79 0.119986 0.0399951 0 -0.48122 
80 1 80 0.119992 0.0799923 0 -0.9221 
81 1 81 0.120001 0.119991 0 -1.04582 
82 1 82 0.120012 0.159988 0 -1.04121 
83 1 83 0.120024 0.199987 0 -0.839359 
84 1 84 0.120046 0.239983 0 -0.318526 
85 1 85 0.120067 0.279973 0 0.282402 
86 1 86 0.120089 0.319963 0 0.563249 
87 1 87 0.120096 0.359945 0 0.108224 
88 1 88 0.120104 0.39993 0 -0.291837 
89 1 89 0.1201 0.439913 0 -0.350584 
90 1 90 0.120099 0.4799 0 0.0383037 
91 1 91 0.120084 0.519887 0 0.461464 
92 1 92 0.120078 0.559881 0 0.229577 
93 1 93 0.120065 0.599876 0 -0.549963 
94 1 94 0.120055 0.63988 0 -1.34838 
95 1 95 0.120047 0.679885 0 -1.30576 
96 1 96 0.120037 0.719895 0 -0.437826 
97 1 97 0.120029 0.759909 0 0.54486 
98 1 98 0.120021 0.799922 0 0.89842 
99 1 99 0.120013 0.839944 0 0.766552 
100 1 100 0.12001 0.879958 0 -0.0178911 
101 1 101 0.120018 0.919974 0 -1.16268 
102 1 102 0.120022 0.959984 0 -2.8019 
103 1 103 0.120024 0.999986 0 -3.94682 
104 1 104 0.16 0 0 0 
105 1 105 0.159985 0.0399964 0 -0.413818 
106 1 106 0.159992 0.0799909 0 -0.833986 
107 1 107 0.160002 0.119986 0 -0.922928 
108 1 108 0.160015 0.159982 0 -0.850724 
109 1 109 0.16003 0.199975 0 -0.527513 
110 1 110 0.160057 0.239969 0 0.160054 
111 1 111 0.160086 0.279957 0 0.86209 
112 1 112 0.160112 0.319946 0 1.10955 
113 1 113 0.160124 0.359925 0 0.723667 
114 1 114 0.160133 0.39991 0 0.248663 
115 1 115 0.160132 0.439891 0 0.158744 
116 1 116 0.160125 0.479878 0 0.480871 
117 1 117 0.160111 0.519867 0 0.783743 
118 1 118 0.160096 0.559859 0 0.421029 
119 1 119 0.16008 0.599858 0 -0.640482 
120 1 120 0.160063 0.639857 0 -1.49095 
121 1 121 0.160047 0.679866 0 -1.50174 
122 1 122 0.160037 0.719872 0 -0.354357 
123 1 123 0.160018 0.759888 0 0.883859 
124 1 124 0.16001 0.7999 0 1.24406 
125 1 125 0.159996 0.83992 0 0.988547 
126 1 126 0.159998 0.879939 0 0.156674 
127 1 127 0.160004 0.919953 0 -1.23994 
128 1 128 0.160016 0.959965 0 -3.61857 
129 1 129 0.160034 0.999966 0 -5.07293 
130 1 130 0.2 0 0 0 
131 1 131 0.199989 0.0399957 0 -0.242394 
132 1 132 0.199996 0.0799887 0 -0.56578 
133 1 133 0.200006 0.119982 0 -0.623613 
134 1 134 0.200018 0.159976 0 -0.386414 
135 1 135 0.200036 0.199967 0 0.115808 
136 1 136 0.200065 0.239958 0 0.879602 
137 1 137 0.200098 0.279946 0 1.51822 
138 1 138 0.200128 0.319932 0 1.75521 
139 1 139 0.200148 0.359917 0 1.53699 
140 1 140 0.200156 0.399899 0 1.11127 
141 1 141 0.200157 0.439884 0 1.02307 
142 1 142 0.200149 0.479868 0 1.28451 
143 1 143 0.200133 0.519859 0 1.28129 
144 1 144 0.200118 0.559847 0 0.717014 
145 1 145 0.200093 0.599844 0 -0.509259 
146 1 146 0.200073 0.639842 0 -1.48278 
147 1 147 0.200048 0.679846 0 -1.50426 
148 1 148 0.200031 0.719854 0 -0.412571 
149 1 149 0.200007 0.759861 0 0.894106 
150 1 150 0.199992 0.799878 0 1.45944 
151 1 151 0.199973 0.839888 0 1.0835 
152 1 152 0.199977 0.879904 0 0.113986 
153 1 153 0.199984 0.919922 0 -1.36823 
154 1 154 0.200003 0.959933 0 -3.99271 
155 1 155 0.200036 0.99994 0 -5.51097 
156 1 156 0.24 0 0 0 
157 1 157 0.239996 0.0399963 0 0.139241 
158 1 158 0.240001 0.0799898 0 -0.0577343 
159 1 159 0.240009 0.119983 0 -0.082219 
160 1 160 0.240022 0.159977 0 0.398308 
161 1 161 0.240041 0.199969 0 0.989783 
162 1 162 0.240071 0.239958 0 1.6722 
163 1 163 0.240106 0.279947 0 2.16245 
164 1 164 0.240139 0.319934 0 2.33412 
165 1 165 0.240164 0.35992 0 2.31493 
166 1 166 0.240174 0.399903 0 2.14523 
167 1 167 0.240174 0.439887 0 2.13939 
168 1 168 0.240167 0.479873 0 2.13556 
169 1 169 0.240149 0.519858 0 1.66617 
170 1 170 0.240129 0.559846 0 0.827518 
171 1 171 0.2401 0.599834 0 -0.343972 
172 1 172 0.24007 0.63983 0 -1.23775 
173 1 173 0.240041 0.679826 0 -1.31811 
174 1 174 0.240017 0.719831 0 -0.439 
175 1 175 0.239988 0.759835 0 0.560527 
176 1 176 0.239971 0.799844 0 1.18395 
177 1 177 0.23995 0.839856 0 0.955702 
178 1 178 0.239951 0.879864 0 -0.0941835 
179 1 179 0.239957 0.91988 0 -1.67648 
180 1 180 0.239985 0.959893 0 -4.01116 
181 1 181 0.240025 0.999903 0 -5.1789 
182 1 182 0.28 0 0 0 
183 1 183 0.280006 0.0399986 0 0.739775 
184 1 184 0.280009 0.0799936 0 0.812426 
185 1 185 0.280013 0.119987 0 0.807815 
186 1 186 0.280026 0.159984 0 1.3665 
187 1 187 0.280046 0.199977 0 1.94476 
188 1 188 0.280076 0.239968 0 2.40671 
189 1 189 0.280112 0.279958 0 2.57762 
190 1 190 0.280147 0.319947 0 2.63284 
191 1 191 0.280174 0.359932 0 2.92497 
192 1 192 0.280186 0.399917 0 3.13566 
193 1 193 0.280188 0.439899 0 3.18928 
194 1 194 0.28018 0.479883 0 2.88633 
195 1 195 0.280164 0.519864 0 2.0178 
196 1 196 0.280141 0.559846 0 0.988734 
197 1 197 0.280109 0.599832 0 -0.10247 
198 1 198 0.280075 0.639818 0 -0.794068 
199 1 199 0.280036 0.679811 0 -0.92989 
200 1 200 0.280005 0.719807 0 -0.541807 
201 1 201 0.279971 0.759808 0 0.0300778 
202 1 202 0.279948 0.799812 0 0.541115 
203 1 203 0.279927 0.839815 0 0.304638 
204 1 204 0.279927 0.879826 0 -0.687079 
205 1 205 0.279929 0.919835 0 -2.10989 
206 1 206 0.279959 0.959846 0 -3.66075 
207 1 207 0.280003 0.999862 0 -4.15984 
208 1 208 0.32 0 0 0 
209 1 209 0.320013 0.0400009 0 1.31881 
210 1 210 0.320016 0.0799989 0 1.84846 
211 1 211 0.320016 0.119997 0 2.0441 
212 1 212 0.320029 0.159995 0 2.60768 
213 1 213 0.320051 0.199988 0 3.07574 
214 1 214 0.320081 0.239981 0 3.15527 
215 1 215 0.320115 0.279972 0 2.88937 
216 1 216 0.32015 0.319961 0 2.87745 
217 1 217 0.32018 0.359949 0 3.4363 
218 1 218 0.320193 0.399933 0 3.92354 
219 1 219 0.320195 0.439916 0 3.90882 
220 1 220 0.320187 0.479894 0 3.31325 
221 1 221 0.320171 0.519874 0 2.11915 
222 1 222 0.320146 0.55985 0 0.877738 
223 1 223 0.320108 0.599829 0 -0.00238513 
224 1 224 0.320067 0.639811 0 -0.418735 
225 1 225 0.320024 0.679795 0 -0.547517 
226 1 226 0.319986 0.71979 0 -0.577022 
227 1 227 0.319951 0.759781 0 -0.563555 
228 1 228 0.319927 0.799784 0 -0.270971 
229 1 229 0.319903 0.83978 0 -0.587014 
230 1 230 0.319901 0.879784 0 -1.55837 
231 1 231 0.319902 0.919792 0 -2.57143 
232 1 232 0.319931 0.9598 0 -2.97405 
233 1 233 0.319971 0.999819 0 -2.6758 
234 1 234 0.36 0 0 0 
235 1 235 0.360019 0.0400025 0 1.86036 
236 1 236 0.360022 0.080004 0 2.89173 
237 1 237 0.360022 0.120005 0 3.3873 
238 1 238 0.360035 0.160004 0 3.98217 
239 1 239 0.360057 0.199999 0 4.33035 
240 1 240 0.360086 0.239993 0 4.03963 
241 1 241 0.360118 0.279984 0 3.38258 
242 1 242 0.36015 0.319974 0 3.23623 
243 1 243 0.36018 0.359965 0 3.76589 
244 1 244 0.360195 0.399949 0 4.35618 
245 1 245 0.360196 0.439932 0 4.32433 
246 1 246 0.360192 0.479909 0 3.40896 
247 1 247 0.360178 0.519884 0 1.93238 
248 1 248 0.36015 0.559858 0 0.591483 
249 1 249 0.360113 0.599831 0 0.00387257 
250 1 250 0.360069 0.63981 0 -0.0476122 
251 1 251 0.360019 0.679789 0 -0.299032 
252 1 252 0.359978 0.719776 0 -0.761777 
253 1 253 0.359938 0.759765 0 -1.19447 
254 1 254 0.359912 0.799759 0 -1.25832 
255 1 255 0.35989 0.839753 0 -1.59851 
256 1 256 0.359883 0.879751 0 -2.36016 
257 1 257 0.35988 0.919752 0 -2.89415 
258 1 258 0.359901 0.95976 0 -2.17732 
259 1 259 0.359932 0.999779 0 -1.16266 
260 1 260 0.4 0 0 0 
261 1 261 0.400022 0.0400047 0 2.25453 
262 1 262 0.400025 0.080008 0 3.79734 
263 1 263 0.400027 0.120009 0 4.68842 
264 1 264 0.400039 0.160008 0 5.36365 
265 1 265 0.400063 0.200004 0 5.54012 
266 1 266 0.400089 0.239999 0 4.91181 
267 1 267 0.400117 0.279991 0 3.98778 
268 1 268 0.400146 0.319985 0 3.68129 
269 1 269 0.400174 0.359978 0 4.02894 
270 1 270 0.400189 0.399963 0 4.60202 
271 1 271 0.400193 0.439948 0 4.49413 
272 1 272 0.400191 0.479926 0 3.25593 
273 1 273 0.400178 0.519899 0 1.62176 
274 1 274 0.400149 0.559872 0 0.359098 
275 1 275 0.40011 0.599843 0 -0.0239476 
276 1 276 0.400063 0.639816 0 0.161771 
277 1 277 0.400011 0.679792 0 -0.0887007 
278 1 278 0.399966 0.719772 0 -0.959224 
279 1 279 0.399929 0.759754 0 -1.82027 
280 1 280 0.399901 0.799743 0 -2.20102 
281 1 281 0.399878 0.839728 0 -2.60347 
282 1 282 0.399868 0.879723 0 -3.00037 
283 1 283 0.399858 0.919722 0 -2.92265 
284 1 284 0.399871 0.959728 0 -1.33668 
285 1 285 0.399892 0.999746 0 0.157082 
286 1 286 0.44 0 0 0 
287 1 287 0.440026 0.0400074 0 2.27122 
288 1 288 0.440031 0.0800099 0 4.30294 
289 1 289 0.440034 0.12001 0 5.72639 
290 1 290 0.440045 0.160007 0 6.50594 
291 1 291 0.440066 0.200002 0 6.49268 
292 1 292 0.440089 0.239997 0 5.71116 
293 1 293 0.440112 0.279992 0 4.68285 
294 1 294 0.440137 0.319987 0 4.1732 
295 1 295 0.440161 0.359984 0 4.26202 
296 1 296 0.440179 0.399973 0 4.59503 
297 1 297 0.440187 0.439961 0 4.17043 
298 1 298 0.440188 0.479939 0 2.7242 
299 1 299 0.440178 0.519915 0 1.17797 
300 1 300 0.440153 0.559889 0 0.0542568 
301 1 301 0.440118 0.59986 0 -0.132731 
302 1 302 0.440071 0.639832 0 0.183507 
303 1 303 0.44002 0.679802 0 0.007685 
304 1 304 0.439971 0.719778 0 -0.902784 
305 1 305 0.43993 0.759751 0 -2.07999 
306 1 306 0.4399 0.799733 0 -2.79553 
307 1 307 0.439876 0.839715 0 -3.18513 
308 1 308 0.439858 0.879704 0 -3.19041 
309 1 309 0.439841 0.919701 0 -2.65398 
310 1 310 0.439844 0.959704 0 -0.726067 
311 1 311 0.439855 0.999719 0 0.875988 
312 1 312 0.48 0 0 0 
313 1 313 0.480026 0.0400074 0 2.00462 
314 1 314 0.480034 0.0800086 0 4.36328 
315 1 315 0.48004 0.120007 0 6.25468 
316 1 316 0.480051 0.160001 0 7.09871 
317 1 317 0.480068 0.199995 0 6.98583 
318 1 318 0.480085 0.239989 0 6.2182 
319 1 319 0.480103 0.279989 0 5.1672 
320 1 320 0.480122 0.319985 0 4.43363 
321 1 321 0.480144 0.359984 0 4.13916 
322 1 322 0.480164 0.399979 0 4.03915 
323 1 323 0.480176 0.439969 0 3.39223 
324 1 324 0.480181 0.47995 0 2.09237 
325 1 325 0.480173 0.51993 0 0.787167 
326 1 326 0.480149 0.559907 0 -0.188694 
327 1 327 0.480114 0.599879 0 -0.214283 
328 1 328 0.480068 0.639852 0 0.0857435 
329 1 329 0.48002 0.67982 0 -0.141441 
330 1 330 0.479973 0.719789 0 -0.995958 
331 1 331 0.479934 0.759759 0 -2.24194 
332 1 332 0.4799 0.799732 0 -3.14911 
333 1 333 0.479873 0.83971 0 -3.50481 
334 1 334 0.479849 0.879696 0 -3.09356 
335 1 335 0.479825 0.919689 0 -2.19455 
336 1 336 0.47982 0.959689 0 -0.358177 
337 1 337 0.479823 0.9997 0 1.04199 
338 1 338 0.52 0 0 0 
339 1 339 0.520029 0.0400049 0 1.61381 
340 1 340 0.52004 0.0800061 0 4.05969 
341 1 341 0.520049 0.120002 0 6.20314 
342 1 342 0.520057 0.159993 0 7.03828 
343 1 343 0.520069 0.199987 0 6.8157 
344 1 344 0.520082 0.239982 0 6.03041 
345 1 345 0.520095 0.279982 0 5.08785 
346 1 346 0.520108 0.31998 0 4.31814 
347 1 347 0.520128 0.359982 0 3.59117 
348 1 348 0.52015 0.39998 0 2.98897 
349 1 349 0.520167 0.439971 0 2.21604 
350 1 350 0.520176 0.479957 0 1.14466 
351 1 351 0.520169 0.519941 0 0.156608 
352 1 352 0.520148 0.559921 0 -0.512159 
353 1 353 0.52012 0.599897 0 -0.349813 
354 1 354 0.520079 0.639872 0 -0.0945615 
355 1 355 0.520035 0.679838 0 -0.205035 
356 1 356 0.519985 0.719805 0 -0.829887 
357 1 357 0.519944 0.75977 0 -2.01583 
358 1 358 0.519907 0.799738 0 -2.95863 
359 1 359 0.519874 0.839714 0 -3.34929 
360 1 360 0.519844 0.879695 0 -2.69929 
361 1 361 0.519814 0.919685 0 -1.59155 
362 1 362 0.519803 0.959681 0 -0.218232 
363 1 363 0.519798 0.999686 0 0.720902 
364 1 364 0.56 0 0 0 
365 1 365 0.560027 0.0400028 0 1.15521 
366 1 366 0.560043 0.0800042 0 3.49296 
367 1 367 0.560057 0.119999 0 5.6641 
368 1 368 0.560065 0.159989 0 6.40975 
369 1 369 0.560072 0.199984 0 6.09049 
370 1 370 0.560078 0.239978 0 5.39547 
371 1 371 0.560085 0.27998 0 4.66782 
372 1 372 0.560096 0.31998 0 3.79454 
373 1 373 0.560114 0.359983 0 2.59828 
374 1 374 0.560137 0.399981 0 1.60249 
375 1 375 0.560158 0.439975 0 0.783729 
376 1 376 0.560168 0.479965 0 -0.0188479 
377 1 377 0.560161 0.519952 0 -0.43126 
378 1 378 0.560139 0.559935 0 -0.622776 
379 1 379 0.560111 0.599915 0 -0.532173 
380 1 380 0.560072 0.639891 0 -0.534392 
381 1 381 0.560033 0.679857 0 -0.553974 
382 1 382 0.559989 0.719822 0 -0.863014 
383 1 383 0.559949 0.759785 0 -1.80663 
384 1 384 0.559909 0.799748 0 -2.65003 
385 1 385 0.559871 0.839723 0 -3.03111 
386 1 386 0.559837 0.8797 0 -2.17245 
387 1 387 0.559805 0.919686 0 -0.947406 
388 1 388 0.559791 0.959679 0 -0.241076 
389 1 389 0.559782 0.999678 0 0.104739 
390 1 390 0.6 0 0 0 
391 1 391 0.600026 0.0400016 0 0.73527 
392 1 392 0.600049 0.0800018 0 2.73755 
393 1 393 0.600067 0.119999 0 4.69875 
394 1 394 0.600074 0.159988 0 5.31539 
395 1 395 0.600077 0.199985 0 4.98924 
396 1 396 0.600078 0.239979 0 4.51216 
397 1 397 0.600083 0.279981 0 4.03713 
398 1 398 0.600091 0.319981 0 3.06542 
399 1 399 0.600106 0.359983 0 1.54342 
400 1 400 0.60013 0.399981 0 0.256432 
401 1 401 0.600153 0.439978 0 -0.571784 
402 1 402 0.600161 0.479971 0 -1.02718 
403 1 403 0.600154 0.51996 0 -0.875203 
404 1 404 0.600136 0.559948 0 -0.714626 
405 1 405 0.600113 0.59993 0 -0.753009 
406 1 406 0.600081 0.639906 0 -0.949317 
407 1 407 0.600048 0.679875 0 -0.958412 
408 1 408 0.600004 0.719839 0 -1.03291 
409 1 409 0.599962 0.759801 0 -1.6288 
410 1 410 0.599917 0.799764 0 -2.26503 
411 1 411 0.599874 0.839737 0 -2.63454 
412 1 412 0.599837 0.879712 0 -1.73163 
413 1 413 0.599803 0.919696 0 -0.536078 
414 1 414 0.599785 0.959686 0 -0.482512 
415 1 415 0.599771 0.99968 0 -0.693382 
416 1 416 0.64 0 0 0 
417 1 417 0.640022 0.0400007 0 0.362065 
418 1 418 0.640049 0.0800009 0 1.90366 
419 1 419 0.640075 0.119999 0 3.54951 
420 1 420 0.640084 0.159992 0 4.11245 
421 1 421 0.640084 0.199989 0 3.94881 
422 1 422 0.640081 0.239984 0 3.76327 
423 1 423 0.640082 0.279986 0 3.50802 
424 1 424 0.640088 0.319985 0 2.56162 
425 1 425 0.6401 0.359986 0 0.918985 
426 1 426 0.640124 0.399985 0 -0.644967 
427 1 427 0.640148 0.439983 0 -1.47783 
428 1 428 0.640154 0.479978 0 -1.53841 
429 1 429 0.640148 0.51997 0 -0.998789 
430 1 430 0.640127 0.559959 0 -0.769188 
431 1 431 0.640103 0.599943 0 -1.00336 
432 1 432 0.640072 0.639921 0 -1.4173 
433 1 433 0.640045 0.679893 0 -1.63508 
434 1 434 0.640008 0.719858 0 -1.5721 
435 1 435 0.639967 0.759822 0 -1.7897 
436 1 436 0.639921 0.799786 0 -2.16331 
437 1 437 0.639875 0.839758 0 -2.37938 
438 1 438 0.639836 0.879733 0 -1.50475 
439 1 439 0.639804 0.919715 0 -0.453983 
440 1 440 0.639785 0.959702 0 -0.892175 
441 1 441 0.639768 0.999695 0 -1.52069 
442 1 442 0.68 0 0 0 
443 1 443 0.680021 0.0400002 0 -0.0417092 
444 1 444 0.680053 0.0800007 0 1.00005 
445 1 445 0.680082 0.12 0 2.25494 
446 1 446 0.680092 0.159995 0 2.89096 
447 1 447 0.68009 0.199993 0 3.15276 
448 1 448 0.680084 0.239988 0 3.37481 
449 1 449 0.680083 0.279989 0 3.36081 
450 1 450 0.680088 0.319986 0 2.51208 
451 1 451 0.680099 0.359986 0 0.897459 
452 1 452 0.680121 0.399985 0 -0.804824 
453 1 453 0.680143 0.439983 0 -1.63631 
454 1 454 0.680148 0.47998 0 -1.50813 
455 1 455 0.680143 0.519975 0 -0.834552 
456 1 456 0.680125 0.559966 0 -0.650372 
457 1 457 0.680109 0.599952 0 -1.19064 
458 1 458 0.680087 0.639932 0 -1.99309 
459 1 459 0.680064 0.679909 0 -2.57295 
460 1 460 0.680029 0.719876 0 -2.42428 
461 1 461 0.679986 0.759846 0 -2.29843 
462 1 462 0.679938 0.799814 0 -2.40868 
463 1 463 0.679887 0.839786 0 -2.37064 
464 1 464 0.679845 0.879763 0 -1.61868 
465 1 465 0.679813 0.919744 0 -0.816938 
466 1 466 0.679788 0.95973 0 -1.5115 
467 1 467 0.679767 0.999722 0 -2.36098 
468 1 468 0.72 0 0 0 
469 1 469 0.720019 0.0400013 0 -0.365956 
470 1 470 0.720053 0.0800005 0 0.166008 
471 1 471 0.720085 0.120001 0 1.0388 
472 1 472 0.720096 0.159998 0 1.8746 
473 1 473 0.720095 0.199997 0 2.68991 
474 1 474 0.720087 0.239992 0 3.33487 
475 1 475 0.720081 0.279991 0 3.57997 
476 1 476 0.720085 0.319987 0 2.87289 
477 1 477 0.720094 0.359985 0 1.36722 
478 1 478 0.720113 0.399982 0 -0.297637 
479 1 479 0.720133 0.439981 0 -1.13528 
480 1 480 0.720138 0.479981 0 -1.14316 
481 1 481 0.720136 0.519977 0 -0.64437 
482 1 482 0.720118 0.559969 0 -0.625032 
483 1 483 0.720102 0.599959 0 -1.53514 
484 1 484 0.72008 0.639942 0 -2.7056 
485 1 485 0.720061 0.679924 0 -3.59481 
486 1 486 0.720035 0.719898 0 -3.46333 
487 1 487 0.719995 0.759875 0 -3.1101 
488 1 488 0.719949 0.799848 0 -2.88539 
489 1 489 0.719898 0.839823 0 -2.48281 
490 1 490 0.719855 0.879802 0 -1.94995 
491 1 491 0.719825 0.919782 0 -1.48239 
492 1 492 0.719797 0.959767 0 -2.21684 
493 1 493 0.71977 0.999761 0 -3.10173 
494 1 494 0.76 0 0 0 
495 1 495 0.760022 0.0400025 0 -0.454126 
496 1 496 0.760058 0.0800009 0 -0.412924 
497 1 497 0.760087 0.120001 0 0.0895633 
498 1 498 0.760097 0.16 0 1.12255 
499 1 499 0.760096 0.199999 0 2.40649 
500 1 500 0.760086 0.239993 0 3.36082 
501 1 501 0.760079 0.27999 0 3.7603 
502 1 502 0.760081 0.319984 0 3.21946 
503 1 503 0.760088 0.35998 0 1.93064 
504 1 504 0.760104 0.399976 0 0.351072 
505 1 505 0.760122 0.439976 0 -0.517597 
506 1 506 0.760126 0.479977 0 -0.70943 
507 1 507 0.760129 0.519975 0 -0.496783 
508 1 508 0.760118 0.559969 0 -0.767321 
509 1 509 0.760112 0.599962 0 -1.98673 
510 1 510 0.760097 0.639948 0 -3.28056 
511 1 511 0.760081 0.679938 0 -4.36063 
512 1 512 0.760058 0.71992 0 -4.39154 
513 1 513 0.760017 0.759905 0 -3.88542 
514 1 514 0.75997 0.799885 0 -3.28576 
515 1 515 0.759919 0.839865 0 -2.56705 
516 1 516 0.759874 0.879846 0 -2.32732 
517 1 517 0.759843 0.919826 0 -2.20531 
518 1 518 0.759807 0.959813 0 -2.83672 
519 1 519 0.759774 0.999807 0 -3.62943 
520 1 520 0.8 0 0 0 
521 1 521 0.800024 0.0400024 0 -0.331262 
522 1 522 0.800057 0.0800015 0 -0.661501 
523 1 523 0.800083 0.120002 0 -0.582573 
524 1 524 0.800095 0.160003 0 0.461237 
525 1 525 0.800094 0.200002 0 2.0664 
526 1 526 0.800083 0.239997 0 3.20784 
527 1 527 0.800074 0.279993 0 3.59318 
528 1 528 0.800075 0.319984 0 3.16026 
529 1 529 0.800081 0.359979 0 2.21723 
530 1 530 0.800091 0.399975 0 0.840916 
531 1 531 0.800107 0.439975 0 -0.0902402 
532 1 532 0.800112 0.479976 0 -0.533188 
533 1 533 0.80012 0.519976 0 -0.716075 
534 1 534 0.80011 0.559971 0 -1.26472 
535 1 535 0.800101 0.599967 0 -2.54041 
536 1 536 0.800087 0.639957 0 -3.74811 
537 1 537 0.800074 0.679954 0 -4.90577 
538 1 538 0.800057 0.719944 0 -5.01971 
539 1 539 0.800023 0.759937 0 -4.28422 
540 1 540 0.799983 0.799925 0 -3.35492 
541 1 541 0.799937 0.83991 0 -2.43703 
542 1 542 0.799893 0.879893 0 -2.44965 
543 1 543 0.799862 0.919875 0 -2.72311 
544 1 544 0.79982 0.959863 0 -3.38624 
545 1 545 0.79978 0.999858 0 -4.11156 
546 1 546 0.84 0 0 0 
547 1 547 0.84003 0.0400016 0 0.0881486 
548 1 548 0.84006 0.0800008 0 -0.490039 
549 1 549 0.840079 0.120003 0 -0.85894 
550 1 550 0.840089 0.160006 0 -0.0234971 
551 1 551 0.840089 0.200006 0 1.55446 
552 1 552 0.840081 0.240003 0 2.5967 
553 1 553 0.840072 0.279997 0 2.81968 
554 1 554 0.840071 0.319989 0 2.42119 
555 1 555 0.840076 0.359983 0 1.80974 
556 1 556 0.840082 0.399979 0 0.752876 
557 1 557 0.840093 0.439979 0 -0.133489 
558 1 558 0.8401 0.47998 0 -0.806934 
559 1 559 0.840113 0.519981 0 -1.35386 
560 1 560 0.840112 0.559977 0 -1.96541 
561 1 561 0.840112 0.599975 0 -3.00482 
562 1 562 0.840103 0.639969 0 -3.9497 
563 1 563 0.840089 0.679971 0 -4.96126 
564 1 564 0.840071 0.719969 0 -5.07571 
565 1 565 0.84004 0.75997 0 -4.2536 
566 1 566 0.840002 0.799965 0 -3.16931 
567 1 567 0.839959 0.839955 0 -2.15434 
568 1 568 0.839916 0.879941 0 -2.36118 
569 1 569 0.839882 0.919926 0 -3.0461 
570 1 570 0.839832 0.959916 0 -3.78984 
571 1 571 0.839786 0.999911 0 -4.41967 
572 1 572 0.88 0 0 0 
573 1 573 0.880029 0.0399994 0 0.687733 
574 1 574 0.880055 0.0800005 0 -0.067753 
575 1 575 0.880071 0.120004 0 -0.846842 
576 1 576 0.880082 0.16001 0 -0.360822 
577 1 577 0.880085 0.200013 0 0.820745 
578 1 578 0.880079 0.240012 0 1.51564 
579 1 579 0.880072 0.280007 0 1.58235 
580 1 580 0.88007 0.320001 0 1.26805 
581 1 581 0.880074 0.359995 0 0.94903 
582 1 582 0.880075 0.399992 0 0.181344 
583 1 583 0.880083 0.439994 0 -0.629857 
584 1 584 0.880091 0.479995 0 -1.43857 
585 1 585 0.880106 0.519998 0 -2.24095 
586 1 586 0.880105 0.559994 0 -2.82467 
587 1 587 0.8801 0.599995 0 -3.53261 
588 1 588 0.880087 0.639992 0 -4.04984 
589 1 589 0.880073 0.679997 0 -4.65657 
590 1 590 0.88006 0.720001 0 -4.76373 
591 1 591 0.880038 0.760007 0 -4.00418 
592 1 592 0.880008 0.800005 0 -2.82389 
593 1 593 0.879974 0.84 0 -1.78307 
594 1 594 0.879935 0.879988 0 -2.14494 
595 1 595 0.879898 0.919976 0 -3.20196 
596 1 596 0.879842 0.959969 0 -4.09679 
597 1 597 0.879791 0.999965 0 -4.66503 
598 1 598 0.92 0 0 0 
599 1 599 0.920031 0.0399967 0 1.15152 
600 1 600 0.920051 0.0800001 0 0.397814 
601 1 601 0.920063 0.120006 0 -0.6477 
602 1 602 0.920074 0.160013 0 -0.618844 
603 1 603 0.92008 0.200019 0 0.0390686 
604 1 604 0.92008 0.240022 0 0.3427 
605 1 605 0.920077 0.280019 0 0.18939 
606 1 606 0.920075 0.320016 0 -0.0940421 
607 1 607 0.920078 0.360013 0 -0.10292 
608 1 608 0.920075 0.400012 0 -0.522118 
609 1 609 0.92008 0.440016 0 -1.24855 
610 1 610 0.920088 0.480017 0 -2.17525 
611 1 611 0.920104 0.520021 0 -3.18902 
612 1 612 0.92011 0.560019 0 -3.71647 
613 1 613 0.920111 0.600022 0 -4.00997 
614 1 614 0.9201 0.640021 0 -4.03283 
615 1 615 0.920083 0.680027 0 -4.20416 
616 1 616 0.920064 0.720035 0 -4.29373 
617 1 617 0.920044 0.760044 0 -3.60307 
618 1 618 0.920017 0.800046 0 -2.47498 
619 1 619 0.919989 0.840044 0 -1.64022 
620 1 620 0.919952 0.880034 0 -2.05084 
621 1 621 0.919911 0.920025 0 -3.23918 
622 1 622 0.91985 0.960019 0 -4.30838 
623 1 623 0.919796 1.00002 0 -4.89389 
624 1 624 0.96 0 0 0 
625 1 625 0.960023 0.039997 0 1.31857 
626 1 626 0.96004 0.0800013 0 0.770527 
627 1 627 0.960052 0.120009 0 -0.209076 
628 1 628 0.960065 0.160018 0 -0.632077 
629 1 629 0.960075 0.200026 0 -0.652911 
630 1 630 0.960081 0.240033 0 -0.724855 
631 1 631 0.960083 0.280034 0 -0.924351 
632 1 632 0.960082 0.320035 0 -1.0703 
633 1 633 0.960083 0.360036 0 -0.865842 
634 1 634 0.960077 0.400038 0 -1.08499 
635 1 635 0.960079 0.440045 0 -1.79942 
636 1 636 0.960085 0.480047 0 -2.81455 
637 1 637 0.9601 0.520054 0 -3.93132 
638 1 638 0.960102 0.560054 0 -4.32303 
639 1 639 0.960095 0.600058 0 -4.184 
640 1 640 0.960077 0.640059 0 -3.80011 
641 1 641 0.960056 0.680066 0 -3.57683 
642 1 642 0.960038 0.720073 0 -3.60329 
643 1 643 0.960028 0.760082 0 -3.14027 
644 1 644 0.96001 0.800086 0 -2.36109 
645 1 645 0.959992 0.840086 0 -1.82906 
646 1 646 0.95996 0.880078 0 -2.15144 
647 1 647 0.959918 0.920072 0 -3.27005 
648 1 648 0.959855 0.960067 0 -4.33067 
649 1 649 0.959798 1.00007 0 -4.84931 
650 1 650 1 0 0 0 
651 1 651 1.00002 0.0399981 0 1.1288 
652 1 652 1.00003 0.0800025 0 0.80004 
653 1 653 1.00004 0.12001 0 0.100977 
654 1 654 1.00006 0.160021 0 -0.525565 
655 1 655 1.00007 0.200031 0 -1.02469 
656 1 656 1.00008 0.240042 0 -1.31132 
657 1 657 1.00009 0.280046 0 -1.42285 
658 1 658 1.00009 0.320052 0 -1.42777 
659 1 659 1.00009 0.360056 0 -1.15434 
660 1 660 1.00008 0.400062 0 -1.27478 
661 1 661 1.00008 0.44007 0 -1.95295 
662 1 662 1.00008 0.480074 0 -2.98214 
663 1 663 1.00009 0.520083 0 -4.15638 
664 1 664 1.0001 0.560086 0 -4.51123 
665 1 665 1.0001 0.600093 0 -4.08059 
666 1 666 1.00008 0.640096 0 -3.36703 
667 1 667 1.00006 0.680103 0 -2.77825 
668 1 668 1.00003 0.720111 0 -2.74615 
669 1 669 1.00002 0.76012 0 -2.61195 
670 1 670 1.00001 0.800124 0 -2.26721 
671 1 671 0.999992 0.840126 0 -2.05868 
672 1 672 0.999963 0.880121 0 -2.38665 
673 1 673 0.99992 0.920119 0 -3.37277 
674 1 674 0.999857 0.960114 0 -4.17705 
675 1 675 0.999798 1.00011 0 -4.51022 
676 1 676 1.04 0 0 0 
677 1 677 1.04001 0.0400008 0 0.490693 
678 1 678 1.04002 0.080007 0 0.512191 
679 1 679 1.04003 0.120016 0 0.389075 
680 1 680 1.04004 0.160027 0 -0.23991 
681 1 681 1.04006 0.200038 0 -1.07249 
682 1 682 1.04007 0.240051 0 -1.48706 
683 1 683 1.04008 0.280058 0 -1.43513 
684 1 684 1.04008 0.320067 0 -1.23116 
685 1 685 1.04008 0.360075 0 -0.900363 
686 1 686 1.04007 0.400082 0 -0.987204 
687 1 687 1.04007 0.440093 0 -1.68558 
688 1 688 1.04007 0.480099 0 -2.73162 
689 1 689 1.04008 0.520111 0 -3.82695 
690 1 690 1.04008 0.560118 0 -4.05605 
691 1 691 1.04006 0.600128 0 -3.41543 
692 1 692 1.04004 0.640135 0 -2.51911 
693 1 693 1.04002 0.680142 0 -1.73162 
694 1 694 1.03999 0.720148 0 -1.72023 
695 1 695 1.03999 0.760156 0 -1.9767 
696 1 696 1.03998 0.80016 0 -2.16266 
697 1 697 1.03998 0.840164 0 -2.35649 
698 1 698 1.03995 0.880163 0 -2.71767 
699 1 699 1.03991 0.920164 0 -3.39364 
700 1 700 1.03986 0.960162 0 -3.75005 
701 1 701 1.0398 1.00016 0 -3.86508 
702 1 702 1.08 0 0 0 
703 1 703 1.08001 0.0400035 0 -0.276016 
704 1 704 1.08001 0.0800094 0 0.0482271 
705 1 705 1.08002 0.120018 0 0.474946 
706 1 706 1.08003 0.160029 0 -0.0570879 
707 1 707 1.08004 0.200041 0 -0.958565 
708 1 708 1.08006 0.240055 0 -1.23375 
709 1 709 1.08007 0.280064 0 -0.904696 
710 1 710 1.08007 0.320074 0 -0.533606 
711 1 711 1.08007 0.360084 0 -0.270645 
712 1 712 1.08006 0.400092 0 -0.422355 
713 1 713 1.08005 0.440103 0 -1.10262 
714 1 714 1.08005 0.480112 0 -2.07092 
715 1 715 1.08005 0.520127 0 -3.01866 
716 1 716 1.08005 0.560139 0 -3.159 
717 1 717 1.08005 0.600155 0 -2.42318 
718 1 718 1.08003 0.640165 0 -1.4363 
719 1 719 1.08001 0.680174 0 -0.558069 
720 1 720 1.07998 0.72018 0 -0.578514 
721 1 721 1.07997 0.760187 0 -1.21614 
722 1 722 1.07996 0.800193 0 -2.00737 
723 1 723 1.07996 0.8402 0 -2.63478 
724 1 724 1.07994 0.880204 0 -3.01035 
725 1 725 1.0799 0.920211 0 -3.32044 
726 1 726 1.07985 0.960212 0 -3.17228 
727 1 727 1.07979 1.00022 0 -3.05089 
728 1 728 1.12 0 0 0 
729 1 729 1.12 0.0400062 0 -0.992117 
730 1 730 1.12 0.080013 0 -0.51019 
731 1 731 1.12 0.120021 0 0.378454 
732 1 732 1.12001 0.160033 0 0.136482 
733 1 733 1.12002 0.200043 0 -0.6268 
734 1 734 1.12003 0.240057 0 -0.754635 
735 1 735 1.12005 0.280068 0 -0.237845 
736 1 736 1.12005 0.320077 0 0.226944 
737 1 737 1.12004 0.360088 0 0.384035 
738 1 738 1.12003 0.400096 0 0.145815 
739 1 739 1.12002 0.440108 0 -0.482242 
740 1 740 1.12001 0.480119 0 -1.31029 
741 1 741 1.12001 0.520137 0 -2.03793 
742 1 742 1.12001 0.560155 0 -2.098 
743 1 743 1.11999 0.600176 0 -1.4366 
744 1 744 1.11997 0.640191 0 -0.52791 
745 1 745 1.11995 0.680204 0 0.329565 
746 1 746 1.11993 0.72021 0 0.272044 
747 1 747 1.11993 0.760216 0 -0.623783 
748 1 748 1.11993 0.800224 0 -1.8322 
749 1 749 1.11993 0.840234 0 -2.76088 
750 1 750 1.11991 0.880244 0 -3.16669 
751 1 751 1.11988 0.920257 0 -3.16658 
752 1 752 1.11984 0.960261 0 -2.47198 
753 1 753 1.11978 1.00027 0 -2.05113 
754 1 754 1.16 0 0 0 
755 1 755 1.16 0.0400046 0 -1.37502 
756 1 756 1.15999 0.0800111 0 -0.852728 
757 1 757 1.15999 0.120019 0 0.178339 
758 1 758 1.15999 0.16003 0 0.182818 
759 1 759 1.15999 0.20004 0 -0.275394 
760 1 760 1.16001 0.240052 0 -0.209439 
761 1 761 1.16002 0.280064 0 0.391105 
762 1 762 1.16002 0.320072 0 0.867522 
763 1 763 1.16001 0.360082 0 0.918006 
764 1 764 1.15999 0.400089 0 0.556031 
765 1 765 1.15998 0.4401 0 -0.0850641 
766 1 766 1.15997 0.480114 0 -0.825867 
767 1 767 1.15997 0.520135 0 -1.36584 
768 1 768 1.15996 0.560159 0 -1.32283 
769 1 769 1.15996 0.600186 0 -0.700347 
770 1 770 1.15995 0.640206 0 0.175206 
771 1 771 1.15994 0.680222 0 1.00054 
772 1 772 1.15992 0.720231 0 0.890526 
773 1 773 1.15991 0.76024 0 -0.150589 
774 1 774 1.1599 0.80025 0 -1.62312 
775 1 775 1.1599 0.840265 0 -2.8253 
776 1 776 1.15988 0.880281 0 -3.27188 
777 1 777 1.15986 0.9203 0 -2.94886 
778 1 778 1.15982 0.96031 0 -1.68723 
779 1 779 1.15977 1.00032 0 -0.932085 
780 1 780 1.2 0 0 0 
781 1 781 1.19998 0.0400018 0 -1.26696 
782 1 782 1.19997 0.0800078 0 -0.880803 