ITEM: TIMESTEP
0
ITEM: NUMBER OF ATOMS
6875
ITEM: BOX BOUNDS sm sm sm
0 4
0 2
0 0
ITEM: ATOMS id type tag x y z damage s11 s22 s33 s12 s13 s23 vx T ienergy 
1 1 1 0.0199969 0.0199981 0 0 -0.0409635 -0.0442123 -0.027288 -0.0152987 0 0 -0.178194 0 0 
2 1 2 0.0199935 0.0599946 0 0 -0.0759087 -0.0506784 -0.0405557 -0.0259908 0 0 -0.383881 0 0 
3 1 3 0.019993 0.0999936 0 0 -0.087366 -0.0441952 -0.0421529 -0.0289946 0 0 -0.051538 0 0 
4 1 4 0.019994 0.139993 0 0 -0.088501 -0.0365722 -0.0400743 -0.027993 0 0 -0.0216697 0 0 
5 1 5 0.0199927 0.179996 0 0 -0.0933344 -0.0281135 -0.0389097 -0.0224675 0 0 -0.127384 0 0 
6 1 6 0.0199918 0.219998 0 0 -0.108272 -0.0331634 -0.045317 -0.0105925 0 0 -0.250137 0 0 
7 1 7 0.0199902 0.260001 0 0 -0.126874 -0.0397362 -0.0533885 0.000956053 0 0 -0.19644 0 0 
8 1 8 0.0199893 0.300004 0 0 -0.148783 -0.053384 -0.0647894 0.0148965 0 0 -0.198608 0 0 
9 1 9 0.0199878 0.340006 0 0 -0.164776 -0.0674002 -0.0744143 0.0248046 0 0 -0.328592 0 0 
10 1 10 0.0199873 0.380007 0 0 -0.174563 -0.0771692 -0.0806865 0.0308334 0 0 -0.498434 0 0 
11 1 11 0.0199858 0.420009 0 0 -0.180581 -0.0844023 -0.0849375 0.0329976 0 0 -0.584412 0 0 
12 1 12 0.0199851 0.460008 0 0 -0.173602 -0.0841147 -0.0826081 0.0356038 0 0 -0.767092 0 0 
13 1 13 0.0199831 0.500009 0 0 -0.165309 -0.0785455 -0.0781613 0.0311842 0 0 -0.586215 0 0 
14 1 14 0.0199807 0.540008 0 0 -0.155616 -0.0725934 -0.0731439 0.0351743 0 0 -0.624965 0 0 
15 1 15 0.0199753 0.580009 0 0 -0.143203 -0.0668547 -0.0673229 0.0327499 0 0 -0.621299 0 0 
16 1 16 0.0199686 0.620009 0 0 -0.14752 -0.0625155 -0.0673172 0.0328742 0 0 -0.81059 0 0 
17 1 17 0.0199632 0.66001 0 0 -0.16241 -0.0751053 -0.0761331 0.0374363 0 0 -1.49046 0 0 
18 1 18 0.0199645 0.70001 0 0 -0.170326 -0.07198 -0.0776703 0.039006 0 0 -1.74932 0 0 
19 1 19 0.0199669 0.740011 0 0 -0.198855 -0.0942335 -0.0939627 0.0405852 0 0 -1.6276 0 0 
20 1 20 0.0199708 0.780011 0 0 -0.221958 -0.0918446 -0.100609 0.0438553 0 0 -1.4268 0 0 
21 1 21 0.0199732 0.820012 0 0 -0.252276 -0.127355 -0.121737 0.0500434 0 0 -1.34268 0 0 
22 1 22 0.0199756 0.860012 0 0 -0.279155 -0.105551 -0.123367 0.0434869 0 0 -0.435557 0 0 
23 1 23 0.0199736 0.900017 0 0 -0.336123 -0.146888 -0.154934 0.0690059 0 0 -0.919472 0 0 
24 1 24 0.019974 0.940021 0 0 -0.358736 -0.113347 -0.151432 0.0790931 0 0 0.0369594 0 0 
25 1 25 0.0199592 0.980039 0 0 -0.516969 -0.126041 -0.216334 0.0992255 0 0 -0.170566 0 0 
26 1 26 0.0599969 0.0199957 0 0 -0.0473349 -0.0770486 -0.0398547 -0.0190926 0 0 -0.00831638 0 0 
27 1 27 0.0599913 0.0599882 0 0 -0.0638769 -0.063387 -0.040777 -0.0166407 0 0 -0.444516 0 0 
28 1 28 0.0599858 0.0999854 0 0 -0.0790244 -0.0424342 -0.0389125 -0.0117442 0 0 -0.248844 0 0 
29 1 29 0.0599826 0.139986 0 0 -0.101683 -0.0370873 -0.0444602 -0.010507 0 0 -0.464162 0 0 
30 1 30 0.0599788 0.17999 0 0 -0.116711 -0.0176469 -0.0430502 -0.0116606 0 0 -0.44528 0 0 
31 1 31 0.0599759 0.219996 0 0 -0.138829 -0.0238889 -0.052145 -0.00540067 0 0 -0.600567 0 0 
32 1 32 0.0599719 0.260003 0 0 -0.150461 -0.0221283 -0.055311 -0.00263608 0 0 -0.579119 0 0 
33 1 33 0.0599696 0.30001 0 0 -0.162573 -0.0361455 -0.0636878 0.00715621 0 0 -0.691149 0 0 
34 1 34 0.0599678 0.340016 0 0 -0.170359 -0.0497711 -0.070556 0.0139102 0 0 -0.757389 0 0 
35 1 35 0.0599682 0.38002 0 0 -0.174986 -0.0653704 -0.0770421 0.0228015 0 0 -0.718487 0 0 
36 1 36 0.0599685 0.420022 0 0 -0.17728 -0.0743197 -0.0806476 0.0259939 0 0 -0.360995 0 0 
37 1 37 0.0599719 0.460023 0 0 -0.174122 -0.0805294 -0.0816296 0.0402362 0 0 -0.214613 0 0 
38 1 38 0.0599753 0.500023 0 0 -0.16802 -0.0785975 -0.0790527 0.0322091 0 0 0.684541 0 0 
39 1 39 0.05998 0.540023 0 0 -0.16382 -0.0737796 -0.0761592 0.0438556 0 0 0.901927 0 0 
40 1 40 0.0599871 0.580024 0 0 -0.163712 -0.0745614 -0.0763754 0.0359303 0 0 1.2347 0 0 
41 1 41 0.0599929 0.620025 0 0 -0.164362 -0.0639412 -0.073178 0.0321618 0 0 1.95973 0 0 
42 1 42 0.0599941 0.660027 0 0 -0.178218 -0.0762313 -0.0815646 0.0350623 0 0 1.82957 0 0 
43 1 43 0.0599901 0.70003 0 0 -0.192813 -0.0657432 -0.0828835 0.033902 0 0 2.06267 0 0 
44 1 44 0.0599813 0.740033 0 0 -0.221044 -0.0969735 -0.101963 0.0414122 0 0 1.57977 0 0 
45 1 45 0.0599718 0.780036 0 0 -0.216939 -0.065842 -0.0906549 0.0426845 0 0 1.48147 0 0 
46 1 46 0.0599622 0.82004 0 0 -0.270988 -0.12157 -0.125887 0.0606845 0 0 0.540156 0 0 
47 1 47 0.0599506 0.860045 0 0 -0.279758 -0.0694498 -0.111977 0.0472462 0 0 1.15017 0 0 
48 1 48 0.0599367 0.900056 0 0 -0.341518 -0.0950393 -0.14001 0.0841142 0 0 -0.118917 0 0 
49 1 49 0.0599228 0.940072 0 0 -0.406495 -0.0462685 -0.145224 0.0770754 0 0 0.416642 0 0 
50 1 50 0.0598888 0.980101 0 0 -0.409006 0.0217773 -0.124186 0.0161866 0 0 0.131735 0 0 
51 1 51 0.0999932 0.0199956 0 0 -0.045462 -0.0769478 -0.0392354 -0.0228262 0 0 0.0768374 0 0 
52 1 52 0.0999812 0.0599885 0 0 -0.0600503 -0.0615748 -0.0389757 -0.0165203 0 0 -0.569892 0 0 
53 1 53 0.0999734 0.0999852 0 0 -0.0821864 -0.0445413 -0.0406037 -0.0118868 0 0 -0.545665 0 0 
54 1 54 0.0999666 0.139986 0 0 -0.115189 -0.0421101 -0.050405 -0.0108453 0 0 -0.894182 0 0 
55 1 55 0.0999592 0.17999 0 0 -0.130002 -0.0198353 -0.0480163 -0.0114364 0 0 -0.792189 0 0 
56 1 56 0.0999525 0.219998 0 0 -0.149152 -0.0215945 -0.0547224 -0.00784269 0 0 -0.664212 0 0 
57 1 57 0.0999471 0.260006 0 0 -0.159137 -0.0164153 -0.0562655 -0.00601809 0 0 -0.515946 0 0 
58 1 58 0.099943 0.300015 0 0 -0.174009 -0.0308153 -0.0656511 0.000982467 0 0 -0.769163 0 0 
59 1 59 0.0999408 0.340023 0 0 -0.176866 -0.0376167 -0.0687499 0.00860072 0 0 -1.35502 0 0 
60 1 60 0.0999401 0.38003 0 0 -0.179462 -0.0508876 -0.0738363 0.0159752 0 0 -1.95221 0 0 
61 1 61 0.0999398 0.420034 0 0 -0.176293 -0.0601025 -0.0757737 0.0216078 0 0 -2.04495 0 0 
62 1 62 0.0999407 0.460038 0 0 -0.169462 -0.0603471 -0.073663 0.0364998 0 0 -2.0511 0 0 
63 1 63 0.0999415 0.50004 0 0 -0.165301 -0.0724289 -0.0762044 0.0323949 0 0 -1.12262 0 0 
64 1 64 0.0999399 0.540042 0 0 -0.153911 -0.0598097 -0.068501 0.0423126 0 0 -0.404903 0 0 
65 1 65 0.0999355 0.580043 0 0 -0.162568 -0.0696785 -0.0744409 0.037259 0 0 -0.0465739 0 0 
66 1 66 0.0999265 0.620045 0 0 -0.159627 -0.0526329 -0.0680324 0.0347155 0 0 -0.00339372 0 0 
67 1 67 0.0999191 0.660048 0 0 -0.170024 -0.0652103 -0.0754003 0.0424871 0 0 -1.23546 0 0 
68 1 68 0.099915 0.700052 0 0 -0.1707 -0.034941 -0.0659095 0.0319082 0 0 -1.30409 0 0 
69 1 69 0.0999119 0.740058 0 0 -0.214756 -0.0778453 -0.0938082 0.0493642 0 0 -2.12231 0 0 
70 1 70 0.0999108 0.780064 0 0 -0.213102 -0.0413335 -0.0815636 0.045953 0 0 -1.57436 0 0 
71 1 71 0.0999054 0.820074 0 0 -0.264002 -0.073152 -0.108106 0.0565413 0 0 -1.45793 0 0 
72 1 72 0.0998958 0.860085 0 0 -0.285987 -0.0447608 -0.106057 0.0511955 0 0 -0.788465 0 0 
73 1 73 0.0998797 0.900102 0 0 -0.330654 -0.0318323 -0.116234 0.0649213 0 0 -0.894222 0 0 
74 1 74 0.0998582 0.940126 0 0 -0.358391 0.000368208 -0.114803 0.0401879 0 0 -0.284005 0 0 
75 1 75 0.0998247 0.980152 0 0 -0.358258 -0.0198665 -0.12126 0.0227396 0 0 -0.104562 0 0 
76 1 76 0.139994 0.0199966 0 0 -0.047757 -0.0675515 -0.036956 -0.0305357 0 0 0.167323 0 0 
77 1 77 0.13998 0.0599902 0 0 -0.0731638 -0.0618604 -0.0432707 -0.0239237 0 0 -0.425296 0 0 
78 1 78 0.139966 0.0999878 0 0 -0.0922669 -0.0494817 -0.0454293 -0.0204389 0 0 -0.814936 0 0 
79 1 79 0.139952 0.139988 0 0 -0.118895 -0.0452948 -0.0526207 -0.020471 0 0 -1.13555 0 0 
80 1 80 0.139941 0.179992 0 0 -0.134478 -0.0257427 -0.0513464 -0.0171474 0 0 -0.857238 0 0 
81 1 81 0.139932 0.219998 0 0 -0.157804 -0.0295221 -0.0600387 -0.0178494 0 0 -0.626195 0 0 
82 1 82 0.139924 0.260007 0 0 -0.166072 -0.0149523 -0.0580194 -0.0115718 0 0 -0.730719 0 0 
83 1 83 0.139919 0.300017 0 0 -0.175794 -0.0268902 -0.0649679 -0.00544816 0 0 -1.04602 0 0 
84 1 84 0.139917 0.340026 0 0 -0.173843 -0.0227402 -0.0630127 0.00710212 0 0 -1.71391 0 0 
85 1 85 0.139918 0.380035 0 0 -0.180105 -0.035963 -0.069258 0.0101195 0 0 -2.22235 0 0 
86 1 86 0.13992 0.420042 0 0 -0.183044 -0.044947 -0.0730782 0.0219805 0 0 -2.16789 0 0 
87 1 87 0.139925 0.460048 0 0 -0.182575 -0.0480376 -0.0739193 0.0316035 0 0 -1.65365 0 0 
88 1 88 0.139931 0.500053 0 0 -0.189272 -0.0634418 -0.0810107 0.036531 0 0 -0.289562 0 0 
89 1 89 0.139937 0.540057 0 0 -0.179087 -0.0557966 -0.0752887 0.0460158 0 0 0.749696 0 0 
90 1 90 0.139944 0.580062 0 0 -0.18309 -0.0626076 -0.0787565 0.0447815 0 0 1.68805 0 0 
91 1 91 0.139948 0.620067 0 0 -0.184194 -0.0483957 -0.074554 0.0420511 0 0 2.29985 0 0 
92 1 92 0.139946 0.660073 0 0 -0.210752 -0.0690066 -0.0896866 0.0521093 0 0 1.92551 0 0 
93 1 93 0.139937 0.700079 0 0 -0.215325 -0.0484216 -0.0845526 0.0371485 0 0 2.15049 0 0 
94 1 94 0.139922 0.740088 0 0 -0.237033 -0.0624779 -0.096028 0.0517399 0 0 1.12898 0 0 
95 1 95 0.139907 0.780098 0 0 -0.255168 -0.044739 -0.096158 0.0487045 0 0 0.675339 0 0 
96 1 96 0.139887 0.820111 0 0 -0.281294 -0.044429 -0.10444 0.0477993 0 0 0.226011 0 0 
97 1 97 0.139864 0.860128 0 0 -0.30201 -0.0211885 -0.103629 0.0432636 0 0 -0.0080028 0 0 
98 1 98 0.139837 0.900149 0 0 -0.330775 -0.0252531 -0.11416 0.0391441 0 0 -0.461109 0 0 
99 1 99 0.139807 0.940172 0 0 -0.33067 0.0128533 -0.101909 0.026318 0 0 0.203344 0 0 
100 1 100 0.139772 0.980199 0 0 -0.333548 -0.00682941 -0.109149 0.0220188 0 0 -0.141714 0 0 
101 1 101 0.179989 0.0199974 0 0 -0.0385381 -0.0524255 -0.0291398 -0.0412431 0 0 -0.070767 0 0 
102 1 102 0.179969 0.0599926 0 0 -0.0651172 -0.0523361 -0.0376351 -0.0334113 0 0 -0.582909 0 0 
103 1 103 0.179952 0.0999908 0 0 -0.0926046 -0.0500242 -0.0457137 -0.0316859 0 0 -0.927065 0 0 
104 1 104 0.179936 0.139991 0 0 -0.11925 -0.0493282 -0.0540304 -0.032074 0 0 -1.19627 0 0 
105 1 105 0.17992 0.179994 0 0 -0.137689 -0.0348168 -0.0552866 -0.028023 0 0 -1.09686 0 0 
106 1 106 0.179907 0.219999 0 0 -0.161266 -0.0398715 -0.0644648 -0.0280995 0 0 -1.01668 0 0 
107 1 107 0.179897 0.260007 0 0 -0.161408 -0.0117129 -0.0554812 -0.0194455 0 0 -0.969691 0 0 
108 1 108 0.179891 0.300017 0 0 -0.17117 -0.0235293 -0.0624078 -0.0125181 0 0 -1.32808 0 0 
109 1 109 0.179889 0.340027 0 0 -0.16498 -0.00548443 -0.0546392 -0.00236508 0 0 -2.21873 0 0 
110 1 110 0.179889 0.380039 0 0 -0.167939 -0.0161385 -0.0590002 0.00322137 0 0 -3.10072 0 0 
111 1 111 0.179889 0.420049 0 0 -0.160173 -0.0114527 -0.0550009 0.0146147 0 0 -3.42803 0 0 
112 1 112 0.179891 0.460059 0 0 -0.161852 -0.017593 -0.0575081 0.02583 0 0 -3.24969 0 0 
113 1 113 0.179893 0.500068 0 0 -0.160911 -0.0195884 -0.0578476 0.0320942 0 0 -1.98691 0 0 
114 1 114 0.179892 0.540078 0 0 -0.169957 -0.023073 -0.0618641 0.0429249 0 0 -0.831844 0 0 
115 1 115 0.179887 0.580086 0 0 -0.183309 -0.0368329 -0.0705605 0.0439931 0 0 0.130237 0 0 
116 1 116 0.179876 0.620094 0 0 -0.177609 -0.0248635 -0.0648958 0.0445308 0 0 0.199618 0 0 
117 1 117 0.179866 0.660103 0 0 -0.182998 -0.0313648 -0.0687081 0.0518425 0 0 -1.09327 0 0 
118 1 118 0.179857 0.700113 0 0 -0.186463 -0.0253612 -0.0678981 0.0468444 0 0 -1.81756 0 0 
119 1 119 0.179849 0.740123 0 0 -0.19939 -0.0260587 -0.0722665 0.0549806 0 0 -2.67726 0 0 
120 1 120 0.17984 0.780136 0 0 -0.220074 -0.0100532 -0.0737693 0.0467965 0 0 -2.465 0 0 
121 1 121 0.179825 0.820152 0 0 -0.254656 -0.0176578 -0.0872998 0.0454386 0 0 -2.48345 0 0 
122 1 122 0.179806 0.860171 0 0 -0.260664 0.0122578 -0.0796259 0.0314652 0 0 -1.96281 0 0 
123 1 123 0.17978 0.900192 0 0 -0.29431 -0.00892659 -0.0972163 0.028803 0 0 -1.54359 0 0 
124 1 124 0.17975 0.940216 0 0 -0.298334 0.0218246 -0.088661 0.0179816 0 0 -0.642359 0 0 
125 1 125 0.179719 0.98024 0 0 -0.302456 -0.00176808 -0.0975523 0.0195732 0 0 -0.899615 0 0 
126 1 126 0.219989 0.0199978 0 0 -0.0362871 -0.0450222 -0.0260463 -0.0519221 0 0 -0.137382 0 0 
127 1 127 0.219967 0.0599938 0 0 -0.0627726 -0.048471 -0.0356404 -0.0441609 0 0 -0.645668 0 0 
128 1 128 0.219944 0.0999916 0 0 -0.0859609 -0.0504278 -0.0437074 -0.0457678 0 0 -1.18722 0 0 
129 1 129 0.219922 0.139991 0 0 -0.109182 -0.0471407 -0.0500994 -0.0444465 0 0 -1.6642 0 0 
130 1 130 0.219903 0.179993 0 0 -0.134621 -0.0457682 -0.0578143 -0.0422685 0 0 -1.32949 0 0 
131 1 131 0.219887 0.219997 0 0 -0.147919 -0.035342 -0.0587295 -0.0357416 0 0 -1.1633 0 0 
132 1 132 0.219875 0.260004 0 0 -0.145537 -0.0128164 -0.0507414 -0.0260484 0 0 -1.01567 0 0 
133 1 133 0.219869 0.300014 0 0 -0.146619 -0.00710884 -0.0492649 -0.0147219 0 0 -1.52658 0 0 
134 1 134 0.219867 0.340025 0 0 -0.139613 0.0127768 -0.0406493 -0.00733146 0 0 -2.33932 0 0 
135 1 135 0.219867 0.380038 0 0 -0.150011 0.0113911 -0.0444269 -0.000353906 0 0 -3.05291 0 0 
136 1 136 0.219869 0.420051 0 0 -0.159961 0.00983769 -0.0481109 0.0111384 0 0 -3.20457 0 0 
137 1 137 0.219873 0.460065 0 0 -0.177463 0.00727454 -0.0545457 0.0206442 0 0 -2.42069 0 0 
138 1 138 0.219878 0.500079 0 0 -0.196068 -0.00657874 -0.0649573 0.0341956 0 0 -1.11043 0 0 
139 1 139 0.219884 0.540093 0 0 -0.193902 0.00122735 -0.0617553 0.040156 0 0 0.336133 0 0 
140 1 140 0.219889 0.580108 0 0 -0.205092 -0.0151164 -0.0705866 0.0463386 0 0 1.32362 0 0 
141 1 141 0.219891 0.620121 0 0 -0.210575 -0.0168849 -0.0729139 0.0457705 0 0 2.03819 0 0 
142 1 142 0.219887 0.660134 0 0 -0.233258 -0.0329185 -0.0853318 0.0488609 0 0 1.96978 0 0 
143 1 143 0.219875 0.700147 0 0 -0.244574 -0.0299698 -0.0880172 0.0438401 0 0 1.53664 0 0 
144 1 144 0.219855 0.740161 0 0 -0.263384 -0.0436429 -0.0984398 0.0504195 0 0 0.320691 0 0 
145 1 145 0.219833 0.780176 0 0 -0.266569 -0.0201034 -0.0919067 0.038592 0 0 -0.22257 0 0 
146 1 146 0.219805 0.820194 0 0 -0.279029 -0.0243083 -0.0972511 0.0366337 0 0 -1.06686 0 0 
147 1 147 0.219775 0.860212 0 0 -0.281931 -0.000943747 -0.0906855 0.0232929 0 0 -1.21393 0 0 
148 1 148 0.219741 0.900234 0 0 -0.293374 -0.0013202 -0.0944736 0.0162102 0 0 -1.0555 0 0 
149 1 149 0.219707 0.940257 0 0 -0.28641 0.01022 -0.0885586 0.013161 0 0 -0.602812 0 0 
150 1 150 0.219674 0.980279 0 0 -0.287609 -0.00510668 -0.0938599 0.0213957 0 0 -1.06058 0 0 
151 1 151 0.259984 0.0199981 0 0 -0.0284516 -0.0394563 -0.0217544 -0.0610431 0 0 -0.406992 0 0 
152 1 152 0.259956 0.0599943 0 0 -0.0515509 -0.0424439 -0.0301099 -0.0521762 0 0 -1.02118 0 0 
153 1 153 0.259932 0.0999922 0 0 -0.0799017 -0.0503263 -0.0417284 -0.0540192 0 0 -1.35053 0 0 
154 1 154 0.259907 0.139991 0 0 -0.100989 -0.0496507 -0.0482731 -0.0523737 0 0 -1.83383 0 0 
155 1 155 0.259885 0.179991 0 0 -0.115829 -0.0462903 -0.0519539 -0.0502617 0 0 -1.59364 0 0 
156 1 156 0.259865 0.219994 0 0 -0.118044 -0.0249723 -0.0458225 -0.0401695 0 0 -1.76063 0 0 
157 1 157 0.259852 0.260001 0 0 -0.118762 -0.00774585 -0.0405276 -0.0310736 0 0 -1.64716 0 0 
158 1 158 0.259845 0.30001 0 0 -0.123643 0.00650262 -0.0375293 -0.0200204 0 0 -2.07641 0 0 
159 1 159 0.259841 0.340023 0 0 -0.121682 0.0298686 -0.0294151 -0.0118077 0 0 -2.78156 0 0 
160 1 160 0.259839 0.380037 0 0 -0.124032 0.0402032 -0.0268599 -0.00714955 0 0 -3.36703 0 0 
161 1 161 0.259838 0.420055 0 0 -0.123962 0.0530554 -0.0227178 0.00794836 0 0 -4.01159 0 0 
162 1 162 0.259837 0.460073 0 0 -0.129156 0.0568276 -0.0231779 0.00959253 0 0 -3.55987 0 0 
163 1 163 0.259835 0.500093 0 0 -0.150403 0.0517096 -0.031631 0.0249232 0 0 -2.7666 0 0 
164 1 164 0.259833 0.540112 0 0 -0.17743 0.0377909 -0.044753 0.0308083 0 0 -1.28306 0 0 
165 1 165 0.259825 0.580132 0 0 -0.19571 0.028347 -0.0536399 0.0381244 0 0 -0.125853 0 0 
166 1 166 0.259814 0.62015 0 0 -0.204 0.0144321 -0.0607593 0.0421374 0 0 -0.101403 0 0 
167 1 167 0.259801 0.660167 0 0 -0.198106 0.00742519 -0.0611138 0.0478737 0 0 -1.16442 0 0 
168 1 168 0.259791 0.700183 0 0 -0.185595 0.0157018 -0.054446 0.0454483 0 0 -2.18244 0 0 
169 1 169 0.259779 0.740199 0 0 -0.196867 0.00579271 -0.0612391 0.0429319 0 0 -3.15134 0 0 
170 1 170 0.259764 0.780216 0 0 -0.207709 0.0134887 -0.0622472 0.0359218 0 0 -3.43105 0 0 
171 1 171 0.259744 0.820234 0 0 -0.222331 0.00553523 -0.0694833 0.0333647 0 0 -3.60035 0 0 
172 1 172 0.259719 0.860253 0 0 -0.23321 0.0204766 -0.0681849 0.016728 0 0 -2.85055 0 0 
173 1 173 0.259689 0.900274 0 0 -0.25171 0.00759885 -0.0782452 0.0136321 0 0 -2.31067 0 0 
174 1 174 0.259658 0.940295 0 0 -0.251625 0.0177358 -0.0749869 0.00743501 0 0 -1.67108 0 0 
175 1 175 0.259628 0.980316 0 0 -0.264745 -0.00560483 -0.0866807 0.0163627 0 0 -1.92753 0 0 
176 1 176 0.299985 0.019998 0 0 -0.0268915 -0.038099 -0.0208203 -0.0671859 0 0 -0.253052 0 0 
177 1 177 0.299956 0.0599946 0 0 -0.0433601 -0.0357732 -0.0253488 -0.0586216 0 0 -0.879992 0 0 
178 1 178 0.299927 0.0999924 0 0 -0.0608499 -0.0418353 -0.0328975 -0.0593968 0 0 -1.52891 0 0 
179 1 179 0.299898 0.139991 0 0 -0.078585 -0.0448373 -0.0395447 -0.0557077 0 0 -2.22204 0 0 
180 1 180 0.299872 0.179991 0 0 -0.0973291 -0.0401036 -0.0440381 -0.0510244 0 0 -2.06916 0 0 
181 1 181 0.299851 0.219993 0 0 -0.106197 -0.0278782 -0.0429572 -0.036119 0 0 -2.30424 0 0 
182 1 182 0.299837 0.259998 0 0 -0.101161 -0.00340291 -0.0334932 -0.0260386 0 0 -2.14212 0 0 
183 1 183 0.299828 0.300007 0 0 -0.0950687 0.0214194 -0.0235848 -0.0147996 0 0 -2.45701 0 0 
184 1 184 0.299824 0.34002 0 0 -0.0859064 0.0568082 -0.00930864 -0.00498716 0 0 -2.93008 0 0 
185 1 185 0.299821 0.380037 0 0 -0.0985872 0.067698 -0.00988564 -0.00504043 0 0 -3.01171 0 0 
186 1 186 0.299819 0.420057 0 0 -0.124328 0.077642 -0.0149526 0.00948239 0 0 -3.20445 0 0 
187 1 187 0.299818 0.460079 0 0 -0.162753 0.0659965 -0.0310077 0.010083 0 0 -2.29893 0 0 
188 1 188 0.299817 0.500103 0 0 -0.187099 0.0658169 -0.0388738 0.0253671 0 0 -1.31356 0 0 
189 1 189 0.299818 0.540128 0 0 -0.208016 0.0554707 -0.0488923 0.0317738 0 0 -0.227949 0 0 
190 1 190 0.29982 0.580152 0 0 -0.219886 0.0434002 -0.0565647 0.0408805 0 0 0.50536 0 0 
191 1 191 0.299821 0.620175 0 0 -0.229847 0.0325722 -0.0632308 0.0389744 0 0 1.46041 0 0 
192 1 192 0.299816 0.660197 0 0 -0.261234 7.43802e-05 -0.0837221 0.0402247 0 0 1.66413 0 0 
193 1 193 0.299803 0.700217 0 0 -0.276155 -0.0119543 -0.0923686 0.0386992 0 0 1.21183 0 0 
194 1 194 0.299782 0.740235 0 0 -0.278436 -0.0196234 -0.0955615 0.0312589 0 0 0.328612 0 0 
195 1 195 0.299756 0.780254 0 0 -0.269814 -0.00684493 -0.0886934 0.0247046 0 0 -0.727571 0 0 
196 1 196 0.299726 0.820273 0 0 -0.270443 -0.0117989 -0.0904805 0.0222896 0 0 -1.66795 0 0 
197 1 197 0.299692 0.860292 0 0 -0.260188 0.00552791 -0.0816367 0.00601718 0 0 -1.51209 0 0 
198 1 198 0.299656 0.900312 0 0 -0.258906 -0.00945254 -0.086027 0.00813645 0 0 -1.73278 0 0 
199 1 199 0.299621 0.940331 0 0 -0.246389 0.00473935 -0.0774752 0.000209137 0 0 -1.56186 0 0 
200 1 200 0.299589 0.98035 0 0 -0.26058 -0.00893647 -0.0864113 0.00869114 0 0 -2.06149 0 0 
201 1 201 0.339982 0.0199983 0 0 -0.0136574 -0.0285431 -0.0135162 -0.0695833 0 0 -0.294399 0 0 
202 1 202 0.339948 0.0599959 0 0 -0.0237824 -0.02129 -0.0144328 -0.0639796 0 0 -1.04848 0 0 
203 1 203 0.339918 0.099994 0 0 -0.0538427 -0.0376855 -0.0293218 -0.0614895 0 0 -1.60467 0 0 
204 1 204 0.339888 0.139993 0 0 -0.068256 -0.0358567 -0.0333546 -0.0567691 0 0 -2.27716 0 0 
205 1 205 0.33986 0.179993 0 0 -0.0761073 -0.0325611 -0.0348172 -0.050016 0 0 -2.45252 0 0 
206 1 206 0.339836 0.219995 0 0 -0.0743131 -0.0133777 -0.02809 -0.0320089 0 0 -2.93561 0 0 
207 1 207 0.339821 0.26 0 0 -0.078621 0.000233605 -0.0251046 -0.0209354 0 0 -2.92812 0 0 
208 1 208 0.33981 0.300008 0 0 -0.075939 0.0392401 -0.0117424 -0.0107631 0 0 -2.98887 0 0 
209 1 209 0.339803 0.340023 0 0 -0.0859771 0.060511 -0.0081447 -0.00177698 0 0 -3.20681 0 0 
210 1 210 0.339796 0.380041 0 0 -0.094886 0.0852761 -0.00306352 -0.00612227 0 0 -3.26839 0 0 
211 1 211 0.339788 0.420065 0 0 -0.103061 0.106121 0.00099265 0.00664967 0 0 -3.68271 0 0 
212 1 212 0.33978 0.460091 0 0 -0.119197 0.11297 -0.00198798 0.00441489 0 0 -3.46297 0 0 
213 1 213 0.33977 0.500119 0 0 -0.144888 0.107188 -0.0120773 0.019694 0 0 -3.14164 0 0 
214 1 214 0.339761 0.540147 0 0 -0.177683 0.0954592 -0.0263434 0.0207133 0 0 -1.98336 0 0 
215 1 215 0.339749 0.580176 0 0 -0.215872 0.0688478 -0.0471163 0.0336626 0 0 -1.37355 0 0 
216 1 216 0.339737 0.620202 0 0 -0.219426 0.0552545 -0.0526163 0.0383002 0 0 -1.10314 0 0 
217 1 217 0.339725 0.660226 0 0 -0.191265 0.058833 -0.0424376 0.0391267 0 0 -1.48514 0 0 
218 1 218 0.339715 0.700249 0 0 -0.180329 0.047029 -0.0427158 0.0401124 0 0 -2.35405 0 0 
219 1 219 0.339704 0.740269 0 0 -0.177574 0.0438236 -0.042859 0.0331063 0 0 -3.10995 0 0 
220 1 220 0.339687 0.780289 0 0 -0.183955 0.0352672 -0.0476473 0.0253257 0 0 -3.5539 0 0 
221 1 221 0.339666 0.820309 0 0 -0.196277 0.0306061 -0.0530905 0.0180623 0 0 -3.67788 0 0 
222 1 222 0.33964 0.860329 0 0 -0.203251 0.0271515 -0.0564426 0.00334115 0 0 -3.00969 0 0 
223 1 223 0.33961 0.900347 0 0 -0.211567 0.00234923 -0.0670601 0.00713365 0 0 -2.93317 0 0 
224 1 224 0.339579 0.940364 0 0 -0.21551 0.0124979 -0.0650819 -0.00521656 0 0 -2.43817 0 0 
225 1 225 0.339546 0.980383 0 0 -0.243568 -0.00736875 -0.0804483 0.00472927 0 0 -2.98168 0 0 
226 1 226 0.379984 0.0199991 0 0 -0.0145419 -0.0191705 -0.0107936 -0.0699917 0 0 0.0691765 0 0 
227 1 227 0.379951 0.0599977 0 0 -0.0255991 -0.0154814 -0.0131519 -0.0682826 0 0 -0.591679 0 0 
228 1 228 0.379915 0.0999968 0 0 -0.0432541 -0.0277367 -0.0227388 -0.0622395 0 0 -1.46393 0 0 
229 1 229 0.379881 0.139997 0 0 -0.0505228 -0.0163759 -0.0214265 -0.0557926 0 0 -2.34023 0 0 
230 1 230 0.379851 0.179998 0 0 -0.0703288 -0.029518 -0.0319903 -0.044666 0 0 -2.77195 0 0 
231 1 231 0.379827 0.22 0 0 -0.0710588 -0.0083472 -0.0254383 -0.0259654 0 0 -3.24739 0 0 
232 1 232 0.37981 0.260005 0 0 -0.0795405 -8.14019e-05 -0.0255055 -0.0137524 0 0 -3.33548 0 0 
233 1 233 0.379797 0.300014 0 0 -0.0713191 0.0472789 -0.00769105 -0.00314185 0 0 -3.35693 0 0 
234 1 234 0.379787 0.34003 0 0 -0.0851551 0.0664782 -0.00597411 0.00175235 0 0 -3.33348 0 0 
235 1 235 0.379776 0.380049 0 0 -0.1044 0.0933197 -0.00353683 -0.00116793 0 0 -3.05043 0 0 
236 1 236 0.379767 0.420075 0 0 -0.132829 0.108963 -0.00763439 0.0102111 0 0 -2.788 0 0 
237 1 237 0.379757 0.460103 0 0 -0.17658 0.102739 -0.0236506 0.00499157 0 0 -2.13287 0 0 
238 1 238 0.379747 0.500134 0 0 -0.212249 0.0965784 -0.0370623 0.0221796 0 0 -1.90326 0 0 
239 1 239 0.379741 0.540165 0 0 -0.231345 0.0834716 -0.0473854 0.0256158 0 0 -1.19425 0 0 
240 1 240 0.379739 0.580196 0 0 -0.231678 0.0813838 -0.0481634 0.037064 0 0 -0.773205 0 0 
241 1 241 0.379739 0.620226 0 0 -0.254903 0.0524548 -0.0648942 0.0412361 0 0 0.0177958 0 0 
242 1 242 0.379736 0.660253 0 0 -0.278548 0.0319011 -0.0790696 0.0394663 0 0 0.628365 0 0 
243 1 243 0.379726 0.700278 0 0 -0.286153 0.0135835 -0.0873863 0.0334751 0 0 0.915437 0 0 
244 1 244 0.379706 0.740302 0 0 -0.276913 0.010069 -0.0855465 0.026219 0 0 0.346409 0 0 
245 1 245 0.379681 0.780324 0 0 -0.264907 0.00401579 -0.0836375 0.0177647 0 0 -0.594167 0 0 
246 1 246 0.379651 0.820344 0 0 -0.251418 0.00804985 -0.0780154 0.0120324 0 0 -1.33081 0 0 
247 1 247 0.379617 0.860364 0 0 -0.238081 0.00604758 -0.0743876 0.00276749 0 0 -1.57259 0 0 
248 1 248 0.379583 0.900382 0 0 -0.232033 -0.0101156 -0.0776299 0.0075103 0 0 -2.07683 0 0 
249 1 249 0.379548 0.940398 0 0 -0.224996 0.00716213 -0.0698403 -0.00971329 0 0 -1.96011 0 0 
250 1 250 0.37951 0.980416 0 0 -0.242123 -0.010116 -0.0808676 0.00181524 0 0 -3.046 0 0 
251 1 251 0.419982 0.0200001 0 0 0.00372317 0.00235015 0.00195524 -0.0714219 0 0 0.0286582 0 0 
252 1 252 0.419944 0.0600005 0 0 -0.00587214 0.00127147 -0.00146104 -0.0751172 0 0 -0.671887 0 0 
253 1 253 0.419908 0.100001 0 0 -0.0339573 -0.00842993 -0.013571 -0.0655291 0 0 -1.27634 0 0 
254 1 254 0.419873 0.140004 0 0 -0.0513946 -0.00454857 -0.0179164 -0.0571956 0 0 -2.09979 0 0 
255 1 255 0.419841 0.180006 0 0 -0.0676763 -0.0190933 -0.0277998 -0.0421694 0 0 -2.8795 0 0 
256 1 256 0.419815 0.22001 0 0 -0.067046 -0.00125035 -0.0218792 -0.0222022 0 0 -3.49918 0 0 
257 1 257 0.419795 0.260016 0 0 -0.0778562 0.00949994 -0.0218973 -0.0110431 0 0 -3.78798 0 0 
258 1 258 0.419778 0.300026 0 0 -0.0873621 0.0430412 -0.0141941 -0.00144833 0 0 -3.91709 0 0 
259 1 259 0.419764 0.340043 0 0 -0.106923 0.0621401 -0.0143425 0.000919053 0 0 -3.60472 0 0 
260 1 260 0.419748 0.380064 0 0 -0.114858 0.102055 -0.0040917 -0.00274815 0 0 -3.18651 0 0 
261 1 261 0.419731 0.420092 0 0 -0.136691 0.115388 -0.00681511 0.005072 0 0 -3.33452 0 0 
262 1 262 0.419712 0.460122 0 0 -0.156568 0.123523 -0.0105768 -0.00193974 0 0 -3.29051 0 0 
263 1 263 0.419694 0.500155 0 0 -0.1736 0.129005 -0.0142797 0.0147762 0 0 -3.67751 0 0 
264 1 264 0.419679 0.540188 0 0 -0.209078 0.105614 -0.0331466 0.0175647 0 0 -3.3284 0 0 
265 1 265 0.419664 0.580221 0 0 -0.232428 0.0900471 -0.045624 0.0341728 0 0 -3.15921 0 0 
266 1 266 0.419652 0.620252 0 0 -0.220238 0.0853485 -0.0432284 0.0410727 0 0 -2.70759 0 0 
267 1 267 0.419642 0.660281 0 0 -0.189795 0.0832999 -0.034124 0.0468503 0 0 -2.84567 0 0 
268 1 268 0.419635 0.700307 0 0 -0.164837 0.080997 -0.0268609 0.0433043 0 0 -3.08997 0 0 
269 1 269 0.419627 0.740332 0 0 -0.146399 0.0828787 -0.0203453 0.0338153 0 0 -3.25305 0 0 
270 1 270 0.419614 0.780355 0 0 -0.154401 0.0620296 -0.0295963 0.0197378 0 0 -3.32332 0 0 
271 1 271 0.419593 0.820377 0 0 -0.16371 0.0548399 -0.0348851 0.0104788 0 0 -3.3409 0 0 
272 1 272 0.419569 0.860397 0 0 -0.174077 0.0342618 -0.0448143 0.00481818 0 0 -3.10193 0 0 
273 1 273 0.419541 0.900415 0 0 -0.188957 0.0161697 -0.0553864 0.00560918 0 0 -3.12538 0 0 
274 1 274 0.419508 0.940432 0 0 -0.197963 0.0188527 -0.0574231 -0.0125203 0 0 -2.91015 0 0 
275 1 275 0.419471 0.980449 0 0 -0.209612 0.000866886 -0.0669161 -0.000509898 0 0 -4.06814 0 0 
276 1 276 0.459984 0.020001 0 0 -0.000554419 0.0135389 0.00416763 -0.0723409 0 0 0.27552 0 0 
277 1 277 0.459946 0.0600033 0 0 -0.0173153 0.00733819 -0.00318389 -0.0795505 0 0 -0.290316 0 0 
278 1 278 0.459905 0.100007 0 0 -0.0300965 0.0115606 -0.00592874 -0.0704056 0 0 -1.08824 0 0 
279 1 279 0.459866 0.140011 0 0 -0.0443234 0.0129141 -0.0100557 -0.0602783 0 0 -2.04575 0 0 
280 1 280 0.459833 0.180016 0 0 -0.0612103 -0.00227395 -0.0203368 -0.0407073 0 0 -2.79952 0 0 
281 1 281 0.459805 0.220022 0 0 -0.0690588 0.0121683 -0.0182227 -0.0231588 0 0 -3.36042 0 0 
282 1 282 0.459782 0.26003 0 0 -0.0925489 0.00976977 -0.02652 -0.0112388 0 0 -3.77151 0 0 
283 1 283 0.459762 0.300041 0 0 -0.10291 0.045981 -0.0182339 -0.00469221 0 0 -3.75814 0 0 
284 1 284 0.459743 0.340059 0 0 -0.13219 0.0585185 -0.0236 0.00142954 0 0 -3.42477 0 0 
285 1 285 0.459723 0.380082 0 0 -0.150432 0.093752 -0.0181518 -0.00227859 0 0 -2.97301 0 0 
286 1 286 0.459702 0.42011 0 0 -0.191392 0.0949701 -0.0308891 0.00166047 0 0 -2.73319 0 0 
287 1 287 0.459682 0.460141 0 0 -0.228627 0.097011 -0.0421747 0.00125149 0 0 -2.24026 0 0 
288 1 288 0.459665 0.500175 0 0 -0.254338 0.0962522 -0.0506651 0.0169298 0 0 -2.32795 0 0 
289 1 289 0.459653 0.540209 0 0 -0.269991 0.0841988 -0.0595458 0.0217348 0 0 -2.20336 0 0 
290 1 290 0.459648 0.580243 0 0 -0.264269 0.0835566 -0.0579152 0.0415215 0 0 -2.3583 0 0 
291 1 291 0.45965 0.620276 0 0 -0.273789 0.0657315 -0.0666893 0.0466382 0 0 -1.62837 0 0 
292 1 292 0.459651 0.660307 0 0 -0.282714 0.0524789 -0.0738035 0.047092 0 0 -0.675754 0 0 
293 1 293 0.459645 0.700336 0 0 -0.28971 0.0290226 -0.0835731 0.0402539 0 0 0.0484942 0 0 
294 1 294 0.459631 0.740362 0 0 -0.275746 0.02835 -0.0793056 0.0323538 0 0 -0.152732 0 0 
295 1 295 0.459609 0.780386 0 0 -0.257036 0.0197503 -0.0760667 0.0139826 0 0 -0.561805 0 0 
296 1 296 0.45958 0.820408 0 0 -0.238153 0.0204312 -0.0697893 0.00744401 0 0 -1.32788 0 0 
297 1 297 0.459548 0.860428 0 0 -0.225604 0.013647 -0.0679479 0.00145947 0 0 -1.86965 0 0 
298 1 298 0.459515 0.900447 0 0 -0.223206 0.00860152 -0.068797 -0.00165407 0 0 -2.2016 0 0 
299 1 299 0.459478 0.940465 0 0 -0.220369 0.00618488 -0.06867 -0.0155978 0 0 -2.48782 0 0 
300 1 300 0.45944 0.980482 0 0 -0.214506 -0.0054817 -0.0705211 -0.00224999 0 0 -3.72328 0 0 
301 1 301 0.499981 0.0200021 0 0 0.0159577 0.0342023 0.0160755 -0.0754208 0 0 0.0759743 0 0 
302 1 302 0.499939 0.0600068 0 0 0.00107514 0.0302064 0.0100331 -0.0874869 0 0 -0.533911 0 0 
303 1 303 0.499896 0.100012 0 0 -0.0302712 0.0259917 -0.00136232 -0.0800613 0 0 -0.988317 0 0 
304 1 304 0.499856 0.14002 0 0 -0.0516624 0.0272383 -0.00781787 -0.0660006 0 0 -1.70323 0 0 
305 1 305 0.49982 0.180028 0 0 -0.0692385 0.00980492 -0.019039 -0.0435489 0 0 -2.52807 0 0 
306 1 306 0.49979 0.220036 0 0 -0.0764476 0.0287851 -0.0152656 -0.0315063 0 0 -3.14716 0 0 
307 1 307 0.499764 0.260047 0 0 -0.101287 0.0203345 -0.0259327 -0.0148432 0 0 -3.80501 0 0 
308 1 308 0.499739 0.300061 0 0 -0.109747 0.0547524 -0.0176115 -0.0111057 0 0 -3.9067 0 0 
309 1 309 0.499713 0.340081 0 0 -0.139924 0.0695499 -0.02254 -0.00759133 0 0 -3.58195 0 0 
310 1 310 0.499687 0.380105 0 0 -0.163826 0.0905362 -0.0234719 -0.00735621 0 0 -3.30039 0 0 
311 1 311 0.499659 0.420134 0 0 -0.181628 0.104945 -0.0245605 -0.00677971 0 0 -3.02557 0 0 
312 1 312 0.499631 0.460166 0 0 -0.189939 0.121126 -0.022043 -0.00220989 0 0 -3.11271 0 0 
313 1 313 0.499606 0.500201 0 0 -0.201621 0.11768 -0.0268952 0.011001 0 0 -3.95196 0 0 
314 1 314 0.499586 0.540235 0 0 -0.221326 0.108961 -0.0360027 0.0158092 0 0 -3.98434 0 0 
315 1 315 0.49957 0.580269 0 0 -0.234528 0.102227 -0.0423916 0.0380011 0 0 -4.1809 0 0 
316 1 316 0.49956 0.620302 0 0 -0.229036 0.089565 -0.0446926 0.0465804 0 0 -3.99399 0 0 
317 1 317 0.499554 0.660333 0 0 -0.190058 0.10176 -0.0282873 0.0568806 0 0 -4.20339 0 0 
318 1 318 0.499554 0.700362 0 0 -0.152158 0.104142 -0.0153779 0.0477456 0 0 -3.95805 0 0 
319 1 319 0.499551 0.740389 0 0 -0.136931 0.0965209 -0.0129385 0.0400847 0 0 -3.80869 0 0 
320 1 320 0.499542 0.780414 0 0 -0.141835 0.0796295 -0.0199278 0.0174708 0 0 -3.38197 0 0 
321 1 321 0.499523 0.820437 0 0 -0.151529 0.0627257 -0.0284498 0.00809963 0 0 -3.37856 0 0 
322 1 322 0.499501 0.860457 0 0 -0.168263 0.0428372 -0.0401959 0.000235154 0 0 -3.43673 0 0 
323 1 323 0.499472 0.900477 0 0 -0.179285 0.0367795 -0.0456713 -0.00768175 0 0 -3.38034 0 0 
324 1 324 0.49944 0.940495 0 0 -0.181554 0.0186557 -0.0522162 -0.0166767 0 0 -3.67559 0 0 
325 1 325 0.499406 0.980511 0 0 -0.17078 0.0145094 -0.0500833 -0.00589555 0 0 -4.53754 0 0 