ITEM: TIMESTEP
0
ITEM: NUMBER OF ATOMS
7127
ITEM: BOX BOUNDS sm sm sm
0 4
0 2
0 0
ITEM: ATOMS id type tag x y z vx 
0 1 0 0 0 0 0 
1 1 1 0 0.04 0 0 
2 1 2 0 0.08 0 0 
3 1 3 0 0.12 0 0 
4 1 4 0 0.16 0 0 
5 1 5 0 0.2 0 0 
6 1 6 0 0.24 0 0 
7 1 7 0 0.28 0 0 
8 1 8 0 0.32 0 0 
9 1 9 0 0.36 0 0 
10 1 10 0 0.4 0 0 
11 1 11 0 0.44 0 0 
12 1 12 0 0.48 0 0 
13 1 13 0 0.52 0 0 
14 1 14 0 0.56 0 0 
15 1 15 0 0.6 0 0 
16 1 16 0 0.64 0 0 
17 1 17 0 0.68 0 0 
18 1 18 0 0.72 0 0 
19 1 19 0 0.76 0 0 
20 1 20 0 0.8 0 0 
21 1 21 0 0.84 0 0 
22 1 22 0 0.88 0 0 
23 1 23 0 0.92 0 0 
24 1 24 0 0.96 0 0 
25 1 25 0 1 0 0 
26 1 26 0.04 0 0 0 
27 1 27 0.0399895 0.0399745 0 1.53216 
28 1 28 0.0399858 0.0799633 0 2.15856 
29 1 29 0.0399778 0.119961 0 1.84295 
30 1 30 0.0399703 0.159967 0 1.21963 
31 1 31 0.0399677 0.199971 0 0.69359 
32 1 32 0.0399689 0.239974 0 0.233663 
33 1 33 0.0399692 0.27997 0 -0.125726 
34 1 34 0.0399671 0.319965 0 -0.325421 
35 1 35 0.0399638 0.359958 0 -0.457304 
36 1 36 0.0399574 0.399955 0 -0.615368 
37 1 37 0.0399502 0.439952 0 -0.745288 
38 1 38 0.0399414 0.479957 0 -0.889909 
39 1 39 0.0399342 0.519962 0 -0.951943 
40 1 40 0.0399254 0.559975 0 -1.00438 
41 1 41 0.0399216 0.599987 0 -0.902715 
42 1 42 0.0399145 0.640005 0 -0.862214 
43 1 43 0.0399181 0.680017 0 -0.548367 
44 1 44 0.0399076 0.720035 0 -0.609645 
45 1 45 0.0399222 0.76004 0 -0.418431 
46 1 46 0.0399037 0.800057 0 -0.321456 
47 1 47 0.0399149 0.840058 0 -0.571271 
48 1 48 0.0398949 0.88008 0 -0.272593 
49 1 49 0.0398924 0.920098 0 -0.0739334 
50 1 50 0.0398747 0.960141 0 0.276673 
51 1 51 0.0397709 1.00024 0 0.346073 
52 1 52 0.08 0 0 0 
53 1 53 0.0799979 0.0399748 0 2.80153 
54 1 54 0.0799769 0.0799501 0 3.6674 
55 1 55 0.0799501 0.119936 0 3.22162 
56 1 56 0.0799354 0.159938 0 2.17434 
57 1 57 0.0799323 0.199939 0 0.929162 
58 1 58 0.0799341 0.23994 0 0.0369046 
59 1 59 0.0799355 0.279933 0 -0.385709 
60 1 60 0.0799329 0.319927 0 -0.560915 
61 1 61 0.0799247 0.359917 0 -0.667481 
62 1 62 0.0799103 0.399914 0 -0.842026 
63 1 63 0.0798937 0.439912 0 -1.04444 
64 1 64 0.0798737 0.479921 0 -1.31034 
65 1 65 0.0798568 0.519934 0 -1.45853 
66 1 66 0.0798383 0.559956 0 -1.55015 
67 1 67 0.0798289 0.59998 0 -1.35283 
68 1 68 0.0798158 0.64001 0 -1.17758 
69 1 69 0.0798197 0.680037 0 -0.713856 
70 1 70 0.0798111 0.720064 0 -0.503438 
71 1 71 0.0798208 0.760088 0 -0.445004 
72 1 72 0.0798123 0.80011 0 -0.501414 
73 1 73 0.0798075 0.840135 0 -0.846367 
74 1 74 0.0797871 0.880162 0 -0.536119 
75 1 75 0.0797591 0.920212 0 -0.433056 
76 1 76 0.0797143 0.960278 0 0.402473 
77 1 77 0.0796338 1.00034 0 1.25533 
78 1 78 0.12 0 0 0 
79 1 79 0.120005 0.0399759 0 3.1055 
80 1 80 0.119971 0.0799479 0 4.28727 
81 1 81 0.119926 0.119927 0 4.02428 
82 1 82 0.119903 0.159919 0 2.57597 
83 1 83 0.119894 0.199911 0 0.720024 
84 1 84 0.119894 0.239908 0 -0.376315 
85 1 85 0.119897 0.2799 0 -0.758906 
86 1 86 0.119892 0.319893 0 -0.819575 
87 1 87 0.119878 0.359884 0 -0.736805 
88 1 88 0.119855 0.399881 0 -0.772283 
89 1 89 0.119828 0.439884 0 -0.926128 
90 1 90 0.119796 0.479896 0 -1.18609 
91 1 91 0.119768 0.519917 0 -1.34815 
92 1 92 0.119739 0.559944 0 -1.3958 
93 1 93 0.119722 0.59998 0 -1.15582 
94 1 94 0.119707 0.640016 0 -0.754197 
95 1 95 0.119705 0.680056 0 -0.301414 
96 1 96 0.119706 0.720092 0 0.0352148 
97 1 97 0.119709 0.760128 0 0.107 
98 1 98 0.119703 0.800166 0 -0.436967 
99 1 99 0.119696 0.840201 0 -0.908299 
100 1 100 0.119662 0.880251 0 -0.733841 
101 1 101 0.119619 0.920303 0 -0.663073 
102 1 102 0.119573 0.960362 0 0.613254 
103 1 103 0.119519 1.00042 0 1.80016 
104 1 104 0.16 0 0 0 
105 1 105 0.160001 0.0399733 0 2.56574 
106 1 106 0.159961 0.07995 0 3.89609 
107 1 107 0.159907 0.11993 0 3.8144 
108 1 108 0.159872 0.159912 0 2.26512 
109 1 109 0.159855 0.199897 0 0.338326 
110 1 110 0.159851 0.239889 0 -0.772546 
111 1 111 0.159852 0.279879 0 -1.11077 
112 1 112 0.159843 0.319872 0 -0.938802 
113 1 113 0.159823 0.359866 0 -0.546816 
114 1 114 0.159791 0.399866 0 -0.338655 
115 1 115 0.159753 0.439873 0 -0.331593 
116 1 116 0.159709 0.479887 0 -0.503458 
117 1 117 0.159669 0.519912 0 -0.649328 
118 1 118 0.159631 0.559944 0 -0.6385 
119 1 119 0.159605 0.599984 0 -0.412304 
120 1 120 0.159589 0.640027 0 0.0912494 
121 1 121 0.159582 0.68007 0 0.562012 
122 1 122 0.159584 0.720119 0 0.73799 
123 1 123 0.159589 0.760161 0 0.727439 
124 1 124 0.159579 0.800211 0 -0.0311935 
125 1 125 0.159569 0.840258 0 -0.679465 
126 1 126 0.159529 0.880314 0 -0.805221 
127 1 127 0.15949 0.920369 0 -0.653006 
128 1 128 0.159449 0.960424 0 0.75755 
129 1 129 0.159396 1.00048 0 1.75462 
130 1 130 0.2 0 0 0 
131 1 131 0.199989 0.0399748 0 1.40112 
132 1 132 0.199945 0.0799564 0 2.52907 
133 1 133 0.199888 0.119935 0 2.82885 
134 1 134 0.199845 0.15991 0 1.72133 
135 1 135 0.19982 0.19989 0 0.0267563 
136 1 136 0.199809 0.239877 0 -1.03845 
137 1 137 0.199803 0.279867 0 -1.26426 
138 1 138 0.199789 0.319863 0 -0.881193 
139 1 139 0.199763 0.359861 0 -0.2423 
140 1 140 0.199723 0.399865 0 0.223467 
141 1 141 0.199674 0.439876 0 0.463693 
142 1 142 0.199619 0.479894 0 0.464732 
143 1 143 0.199568 0.519921 0 0.42299 
144 1 144 0.199521 0.559956 0 0.517262 
145 1 145 0.199488 0.599995 0 0.744651 
146 1 146 0.199466 0.640042 0 1.19053 
147 1 147 0.199457 0.680087 0 1.51809 
148 1 148 0.199458 0.720139 0 1.55604 
149 1 149 0.199458 0.760192 0 1.23237 
150 1 150 0.199451 0.800246 0 0.277061 
151 1 151 0.199437 0.840308 0 -0.272108 
152 1 152 0.199397 0.880364 0 -0.564185 
153 1 153 0.199364 0.920419 0 -0.542948 
154 1 154 0.199324 0.96048 0 0.459935 
155 1 155 0.199279 1.00053 0 1.0246 
156 1 156 0.24 0 0 0 
157 1 157 0.23997 0.0399757 0 -0.15985 
158 1 158 0.239925 0.0799583 0 0.68816 
159 1 159 0.239872 0.119936 0 1.51581 
160 1 160 0.239826 0.159907 0 1.00981 
161 1 161 0.239791 0.199884 0 -0.228535 
162 1 162 0.23977 0.239867 0 -1.04411 
163 1 163 0.239756 0.27986 0 -1.19472 
164 1 164 0.239735 0.31986 0 -0.755292 
165 1 165 0.239703 0.359864 0 0.0652664 
166 1 166 0.239655 0.399875 0 0.768936 
167 1 167 0.239597 0.439889 0 1.24922 
168 1 168 0.239531 0.479913 0 1.43896 
169 1 169 0.239469 0.51994 0 1.4921 
170 1 170 0.239413 0.559977 0 1.62078 
171 1 171 0.239372 0.600015 0 1.74559 
172 1 172 0.239346 0.640061 0 2.07873 
173 1 173 0.23933 0.68011 0 2.10662 
174 1 174 0.239328 0.72016 0 1.87751 
175 1 175 0.239322 0.760221 0 1.46645 
176 1 176 0.23931 0.800282 0 0.378383 
177 1 177 0.239298 0.840348 0 -0.14752 
178 1 178 0.239266 0.880414 0 -0.278248 
179 1 179 0.239238 0.920468 0 -0.280501 
180 1 180 0.239203 0.960525 0 -0.125978 
181 1 181 0.239167 1.00058 0 -0.272834 
182 1 182 0.28 0 0 0 
183 1 183 0.279949 0.0399735 0 -1.44303 
184 1 184 0.279904 0.0799558 0 -0.972015 
185 1 185 0.279861 0.119934 0 0.0887634 
186 1 186 0.279813 0.159904 0 0.217647 
187 1 187 0.27977 0.199879 0 -0.283788 
188 1 188 0.279738 0.239862 0 -0.827585 
189 1 189 0.279714 0.279857 0 -1.07876 
190 1 190 0.279684 0.319862 0 -0.748396 
191 1 191 0.279644 0.359873 0 0.0507155 
192 1 192 0.279589 0.399891 0 0.82036 
193 1 193 0.279523 0.43991 0 1.47168 
194 1 194 0.279448 0.479938 0 1.87456 
195 1 195 0.279377 0.519966 0 2.07258 
196 1 196 0.279314 0.560002 0 2.31089 
197 1 197 0.279263 0.60004 0 2.3435 
198 1 198 0.279231 0.640083 0 2.46871 
199 1 199 0.279207 0.680131 0 2.2627 
200 1 200 0.279196 0.720185 0 1.64489 
201 1 201 0.279186 0.760246 0 1.07911 
202 1 202 0.27917 0.800313 0 0.289022 
203 1 203 0.279153 0.840383 0 -0.159067 
204 1 204 0.279133 0.88045 0 -0.262958 
205 1 205 0.279115 0.920511 0 -0.21854 
206 1 206 0.279083 0.960568 0 -0.893175 
207 1 207 0.279056 1.00062 0 -1.72567 
208 1 208 0.32 0 0 0 
209 1 209 0.31993 0.0399726 0 -2.06616 
210 1 210 0.319888 0.0799542 0 -2.07509 
211 1 211 0.319854 0.119931 0 -1.09011 
212 1 212 0.319807 0.159901 0 -0.398729 
213 1 213 0.319757 0.199877 0 -0.267412 
214 1 214 0.319713 0.23986 0 -0.696827 
215 1 215 0.319675 0.279858 0 -1.1516 
216 1 216 0.319634 0.319868 0 -1.11248 
217 1 217 0.319588 0.359885 0 -0.552498 
218 1 218 0.319526 0.39991 0 0.188306 
219 1 219 0.319453 0.439934 0 0.983401 
220 1 220 0.319371 0.479965 0 1.61846 
221 1 221 0.319292 0.519994 0 1.99097 
222 1 222 0.31922 0.560029 0 2.32291 
223 1 223 0.319161 0.600064 0 2.31045 
224 1 224 0.319119 0.640105 0 2.17417 
225 1 225 0.319087 0.680151 0 1.7363 
226 1 226 0.319065 0.720206 0 0.975078 
227 1 227 0.319044 0.76027 0 0.284004 
228 1 228 0.319026 0.800338 0 -0.184324 
229 1 229 0.319009 0.840412 0 -0.274717 
230 1 230 0.318998 0.88048 0 -0.317567 
231 1 231 0.31899 0.92054 0 -0.383173 
232 1 232 0.318968 0.960598 0 -1.68076 
233 1 233 0.318951 1.00065 0 -2.9551 
234 1 234 0.36 0 0 0 
235 1 235 0.35992 0.039974 0 -1.82567 
236 1 236 0.359879 0.0799527 0 -2.27997 
237 1 237 0.359852 0.119929 0 -1.76857 
238 1 238 0.359807 0.159902 0 -0.914922 
239 1 239 0.35975 0.199881 0 -0.390749 
240 1 240 0.359694 0.239864 0 -0.746599 
241 1 241 0.35964 0.279865 0 -1.47733 
242 1 242 0.359586 0.319878 0 -1.8982 
243 1 243 0.35953 0.359901 0 -1.73545 
244 1 244 0.35946 0.399931 0 -1.14727 
245 1 245 0.359382 0.439959 0 -0.285169 
246 1 246 0.359295 0.479992 0 0.592345 
247 1 247 0.35921 0.520021 0 1.23762 
248 1 248 0.359133 0.560054 0 1.7536 
249 1 249 0.359066 0.600086 0 1.79578 
250 1 250 0.359015 0.640125 0 1.5405 
251 1 251 0.358972 0.680169 0 0.906314 
252 1 252 0.358938 0.720223 0 0.0658439 
253 1 253 0.358907 0.760288 0 -0.506872 
254 1 254 0.358883 0.800357 0 -0.623671 
255 1 255 0.358866 0.840429 0 -0.449378 
256 1 256 0.358866 0.880498 0 -0.369906 
257 1 257 0.358865 0.92056 0 -0.508203 
258 1 258 0.358851 0.960618 0 -2.15213 
259 1 259 0.358844 1.00067 0 -3.59296 
260 1 260 0.4 0 0 0 
261 1 261 0.399919 0.0399769 0 -0.903178 
262 1 262 0.399879 0.0799531 0 -1.72635 
263 1 263 0.399852 0.11993 0 -1.99836 
264 1 264 0.399806 0.159908 0 -1.3149 
265 1 265 0.399744 0.199889 0 -0.609121 
266 1 266 0.399674 0.239876 0 -0.990432 
267 1 267 0.399603 0.279879 0 -2.03651 
268 1 268 0.399534 0.319893 0 -2.93855 
269 1 269 0.399467 0.359919 0 -3.23425 
270 1 270 0.39939 0.399953 0 -2.85929 
271 1 271 0.399308 0.439984 0 -1.93028 
272 1 272 0.399219 0.480018 0 -0.764413 
273 1 273 0.39913 0.520046 0 0.214694 
274 1 274 0.399048 0.560076 0 0.987148 
275 1 275 0.398974 0.600105 0 1.12986 
276 1 276 0.398913 0.64014 0 0.816596 
277 1 277 0.398858 0.680183 0 0.170872 
278 1 278 0.398811 0.720237 0 -0.631426 
279 1 279 0.398771 0.760299 0 -1.03464 
280 1 280 0.398744 0.800368 0 -0.705862 
281 1 281 0.398727 0.840436 0 -0.314165 
282 1 282 0.398733 0.880504 0 -0.296842 
283 1 283 0.39874 0.920567 0 -0.5469 
284 1 284 0.398735 0.960626 0 -2.23612 
285 1 285 0.398735 1.00068 0 -3.60821 
286 1 286 0.44 0 0 0 
287 1 287 0.439928 0.0399809 0 0.293661 
288 1 288 0.439886 0.0799553 0 -0.731173 
289 1 289 0.439853 0.119934 0 -1.79033 
290 1 290 0.439803 0.159917 0 -1.50669 
291 1 291 0.439735 0.199903 0 -0.887111 
292 1 292 0.439651 0.239894 0 -1.33147 
293 1 293 0.439562 0.279898 0 -2.53452 
294 1 294 0.439476 0.319913 0 -3.77077 
295 1 295 0.439396 0.359941 0 -4.45547 
296 1 296 0.439312 0.399975 0 -4.26174 
297 1 297 0.439228 0.440008 0 -3.28627 
298 1 298 0.439139 0.480042 0 -1.86477 
299 1 299 0.439051 0.520068 0 -0.573205 
300 1 300 0.438968 0.560095 0 0.452304 
301 1 301 0.438889 0.600121 0 0.774371 
302 1 302 0.438819 0.640154 0 0.469825 
303 1 303 0.438754 0.680194 0 -0.0976009 
304 1 304 0.438694 0.720246 0 -0.68479 
305 1 305 0.438645 0.760305 0 -0.897471 
306 1 306 0.438615 0.800371 0 -0.292202 
307 1 307 0.438598 0.840435 0 0.217855 
308 1 308 0.438607 0.880501 0 0.0809956 
309 1 309 0.438616 0.920564 0 -0.335008 
310 1 310 0.438617 0.960625 0 -1.86018 
311 1 311 0.438622 1.00068 0 -2.99352 
312 1 312 0.48 0 0 0 
313 1 313 0.479943 0.0399839 0 1.26595 
314 1 314 0.479896 0.0799576 0 0.230873 
315 1 315 0.47985 0.119939 0 -1.36321 
316 1 316 0.479793 0.159928 0 -1.51746 
317 1 317 0.479717 0.199919 0 -1.05341 
318 1 318 0.479621 0.239916 0 -1.39921 
319 1 319 0.479515 0.279921 0 -2.48526 
320 1 320 0.479411 0.319937 0 -3.8352 
321 1 321 0.479318 0.359964 0 -4.79616 
322 1 322 0.479228 0.399998 0 -4.78327 
323 1 323 0.479143 0.440032 0 -3.85289 
324 1 324 0.479057 0.480063 0 -2.28216 
325 1 325 0.478971 0.520089 0 -0.756431 
326 1 326 0.478888 0.560113 0 0.430327 
327 1 327 0.478805 0.600136 0 0.896808 
328 1 328 0.478727 0.640167 0 0.642437 
329 1 329 0.478652 0.680204 0 0.174906 
330 1 330 0.478583 0.720254 0 -0.16262 
331 1 331 0.478527 0.760307 0 -0.16699 
332 1 332 0.478495 0.800369 0 0.572119 
333 1 333 0.478477 0.840428 0 1.03603 
334 1 334 0.478484 0.880491 0 0.658814 
335 1 335 0.478493 0.920555 0 0.076026 
336 1 336 0.478497 0.960617 0 -1.12559 
337 1 337 0.478505 1.00068 0 -1.90642 
338 1 338 0.52 0 0 0 
339 1 339 0.51996 0.0399849 0 1.6748 
340 1 340 0.519906 0.0799596 0 0.885272 
341 1 341 0.519844 0.119944 0 -0.713653 
342 1 342 0.519775 0.159939 0 -1.13212 
343 1 343 0.519692 0.199936 0 -0.848087 
344 1 344 0.519584 0.239939 0 -1.01037 
345 1 345 0.519463 0.279946 0 -1.74795 
346 1 346 0.519344 0.319963 0 -2.92613 
347 1 347 0.519238 0.359989 0 -3.94782 
348 1 348 0.519142 0.400021 0 -4.0547 
349 1 349 0.519057 0.440054 0 -3.26999 
350 1 350 0.518975 0.480083 0 -1.76789 
351 1 351 0.518894 0.520108 0 -0.249674 
352 1 352 0.518815 0.56013 0 0.8883 
353 1 353 0.51873 0.600151 0 1.37303 
354 1 354 0.518646 0.64018 0 1.15821 
355 1 355 0.518563 0.680214 0 0.834452 
356 1 356 0.518485 0.72026 0 0.774551 
357 1 357 0.518424 0.760308 0 0.905881 
358 1 358 0.518389 0.800364 0 1.57714 
359 1 359 0.518368 0.840416 0 1.84914 
360 1 360 0.518369 0.880477 0 1.18936 
361 1 361 0.518372 0.92054 0 0.444073 
362 1 362 0.518376 0.960603 0 -0.34527 
363 1 363 0.518386 1.00066 0 -0.710998 
364 1 364 0.56 0 0 0 
365 1 365 0.559971 0.0399833 0 1.39371 
366 1 366 0.559909 0.0799609 0 1.01223 
367 1 367 0.55983 0.11995 0 -0.0954864 
368 1 368 0.559749 0.159949 0 -0.54599 
369 1 369 0.559658 0.199953 0 -0.354272 
370 1 370 0.559541 0.239963 0 -0.153259 
371 1 371 0.55941 0.279973 0 -0.27953 
372 1 372 0.559279 0.31999 0 -1.03362 
373 1 373 0.559162 0.360015 0 -1.96767 
374 1 374 0.559059 0.400043 0 -2.22255 
375 1 375 0.558974 0.440075 0 -1.76796 
376 1 376 0.558897 0.480102 0 -0.609074 
377 1 377 0.55882 0.520126 0 0.628749 
378 1 378 0.558742 0.560147 0 1.50049 
379 1 379 0.558655 0.600167 0 1.88194 
380 1 380 0.558564 0.640195 0 1.67754 
381 1 381 0.558475 0.680226 0 1.46681 
382 1 382 0.558392 0.720267 0 1.65023 
383 1 383 0.558327 0.760308 0 1.85853 
384 1 384 0.55829 0.800357 0 2.31463 
385 1 385 0.558265 0.840404 0 2.33608 
386 1 386 0.558257 0.88046 0 1.50416 
387 1 387 0.558253 0.920521 0 0.736988 
388 1 388 0.558257 0.960585 0 0.460609 
389 1 389 0.558267 1.00065 0 0.544683 
390 1 390 0.6 0 0 0 
391 1 391 0.599975 0.0399806 0 0.590177 
392 1 392 0.599905 0.0799632 0 0.713987 
393 1 393 0.599813 0.119957 0 0.488811 
394 1 394 0.59972 0.15996 0 0.239898 
395 1 395 0.59962 0.199969 0 0.386112 
396 1 396 0.599497 0.239986 0 0.948935 
397 1 397 0.59936 0.28 0 1.47772 
398 1 398 0.59922 0.320018 0 1.28445 
399 1 399 0.599093 0.36004 0 0.585913 
400 1 400 0.598985 0.400065 0 0.194715 
401 1 401 0.598898 0.440094 0 0.180169 
402 1 402 0.598823 0.480119 0 0.752429 
403 1 403 0.59875 0.520143 0 1.46113 
404 1 404 0.598673 0.560163 0 1.88093 
405 1 405 0.598585 0.600184 0 2.06582 
406 1 406 0.598489 0.640211 0 1.89879 
407 1 407 0.598395 0.680239 0 1.8268 
408 1 408 0.59831 0.720274 0 2.21719 
409 1 409 0.598241 0.760308 0 2.43981 
410 1 410 0.5982 0.800349 0 2.56668 
411 1 411 0.598168 0.840391 0 2.29371 
412 1 412 0.598149 0.880443 0 1.39391 
413 1 413 0.598136 0.920501 0 0.717768 
414 1 414 0.598137 0.960562 0 0.97288 
415 1 415 0.598147 1.00062 0 1.48751 
416 1 416 0.64 0 0 0 
417 1 417 0.639968 0.0399788 0 -0.385304 
418 1 418 0.639891 0.0799679 0 0.184857 
419 1 419 0.639789 0.119966 0 0.881772 
420 1 420 0.639685 0.159972 0 0.88819 
421 1 421 0.639578 0.199987 0 0.963716 
422 1 422 0.639452 0.240008 0 1.78309 
423 1 423 0.639314 0.280026 0 2.8734 
424 1 424 0.63917 0.320045 0 3.27686 
425 1 425 0.639035 0.360064 0 2.93893 
426 1 426 0.638921 0.400084 0 2.48449 
427 1 427 0.63883 0.44011 0 1.99282 
428 1 428 0.638753 0.480132 0 1.87501 
429 1 429 0.638679 0.520156 0 1.92515 
430 1 430 0.6386 0.560178 0 1.82253 
431 1 431 0.638509 0.600201 0 1.79572 
432 1 432 0.638408 0.640227 0 1.72256 
433 1 433 0.63831 0.680252 0 1.81982 
434 1 434 0.638224 0.720282 0 2.36866 
435 1 435 0.638153 0.760309 0 2.56709 
436 1 436 0.638108 0.800343 0 2.34213 
437 1 437 0.638071 0.84038 0 1.81909 
438 1 438 0.638042 0.880427 0 1.00427 
439 1 439 0.638021 0.920481 0 0.528236 
440 1 440 0.638022 0.960538 0 1.24263 
441 1 441 0.638033 1.00059 0 2.10082 
442 1 442 0.68 0 0 0 
443 1 443 0.679953 0.0399802 0 -1.21485 
444 1 444 0.679869 0.0799766 0 -0.407918 
445 1 445 0.679763 0.119978 0 0.941456 
446 1 446 0.67965 0.159987 0 1.13749 
447 1 447 0.679534 0.200005 0 1.11592 
448 1 448 0.679407 0.24003 0 2.05628 
449 1 449 0.679271 0.28005 0 3.54999 
450 1 450 0.679125 0.320069 0 4.53805 
451 1 451 0.678986 0.360085 0 4.66737 
452 1 452 0.678866 0.4001 0 4.23776 
453 1 453 0.678768 0.440121 0 3.32722 
454 1 454 0.678687 0.480141 0 2.53604 
455 1 455 0.678609 0.520166 0 1.95635 
456 1 456 0.678526 0.560191 0 1.432 
457 1 457 0.678433 0.600216 0 1.30887 
458 1 458 0.67833 0.640242 0 1.45197 
459 1 459 0.678231 0.680266 0 1.76711 
460 1 460 0.678146 0.72029 0 2.39863 
461 1 461 0.678073 0.760311 0 2.50244 
462 1 462 0.678021 0.800338 0 1.90351 
463 1 463 0.677976 0.84037 0 1.14778 
464 1 464 0.677937 0.880413 0 0.508898 
465 1 465 0.677909 0.920461 0 0.302143 
466 1 466 0.677909 0.960514 0 1.36078 
467 1 467 0.67792 1.00057 0 2.4443 
468 1 468 0.72 0 0 0 
469 1 469 0.719932 0.0399855 0 -1.60304 
470 1 470 0.719842 0.0799892 0 -0.78557 
471 1 471 0.719732 0.119994 0 0.784123 
472 1 472 0.719612 0.160006 0 1.02024 
473 1 473 0.719487 0.200026 0 0.840286 
474 1 474 0.719358 0.24005 0 1.6751 
475 1 475 0.719226 0.280073 0 3.27101 
476 1 476 0.719083 0.320089 0 4.70286 
477 1 477 0.718942 0.360101 0 5.3632 
478 1 478 0.718817 0.400112 0 5.14073 
479 1 479 0.718711 0.440127 0 4.06322 
480 1 480 0.718622 0.480146 0 2.81455 
481 1 481 0.718537 0.520171 0 1.7646 
482 1 482 0.718447 0.560199 0 0.966958 
483 1 483 0.718349 0.600228 0 0.839957 
484 1 484 0.718245 0.640255 0 1.26029 
485 1 485 0.718147 0.680277 0 1.8038 
486 1 486 0.718063 0.720297 0 2.4437 
487 1 487 0.71799 0.760313 0 2.42863 
488 1 488 0.717932 0.800335 0 1.52782 
489 1 489 0.71788 0.840364 0 0.597991 
490 1 490 0.717835 0.880401 0 0.140422 
491 1 491 0.717802 0.920444 0 0.114552 
492 1 492 0.717803 0.960491 0 1.24543 
493 1 493 0.717815 1.00054 0 2.36473 
494 1 494 0.76 0 0 0 
495 1 495 0.75991 0.0399939 0 -1.5371 
496 1 496 0.759812 0.0800039 0 -0.958104 
497 1 497 0.759701 0.120012 0 0.357889 
498 1 498 0.759572 0.160026 0 0.510603 
499 1 499 0.759438 0.200046 0 0.236608 
500 1 500 0.759307 0.240069 0 0.894351 
501 1 501 0.759179 0.280091 0 2.41443 
502 1 502 0.759042 0.320105 0 4.19384 
503 1 503 0.758903 0.360114 0 5.41641 
504 1 504 0.758775 0.40012 0 5.52319 
505 1 505 0.758659 0.440129 0 4.46161 
506 1 506 0.758559 0.480147 0 2.92311 
507 1 507 0.758466 0.520172 0 1.56 
508 1 508 0.75837 0.560203 0 0.671762 
509 1 509 0.758272 0.600235 0 0.664184 
510 1 510 0.75817 0.640263 0 1.40491 
511 1 511 0.758074 0.680285 0 2.1492 
512 1 512 0.757993 0.720302 0 2.6898 
513 1 513 0.757917 0.760316 0 2.49634 
514 1 514 0.757851 0.800334 0 1.34845 
515 1 515 0.757791 0.840359 0 0.28434 
516 1 516 0.75774 0.880392 0 -0.00107499 
517 1 517 0.757704 0.920429 0 0.126348 
518 1 518 0.757704 0.96047 0 1.17939 
519 1 519 0.757717 1.00051 0 2.20936 
520 1 520 0.8 0 0 0 
521 1 521 0.79989 0.0400032 0 -1.12051 
522 1 522 0.799782 0.0800177 0 -0.884691 
523 1 523 0.799667 0.120029 0 -0.0723689 
524 1 524 0.79953 0.160046 0 0.0203707 
525 1 525 0.799388 0.200065 0 -0.187058 
526 1 526 0.799254 0.240085 0 0.286197 
527 1 527 0.799129 0.280105 0 1.54903 
528 1 528 0.798998 0.320116 0 3.44396 
529 1 529 0.798864 0.360121 0 5.04366 
530 1 530 0.798735 0.400124 0 5.44977 
531 1 531 0.798612 0.440128 0 4.55412 
532 1 532 0.798501 0.480145 0 2.94574 
533 1 533 0.798397 0.52017 0 1.45913 
534 1 534 0.798292 0.560203 0 0.598319 
535 1 535 0.798192 0.600238 0 0.701907 
536 1 536 0.798093 0.640266 0 1.671 
537 1 537 0.798 0.680289 0 2.53372 
538 1 538 0.797921 0.720304 0 2.91457 
539 1 539 0.797844 0.760317 0 2.57604 
540 1 540 0.797771 0.800334 0 1.34944 
541 1 541 0.797705 0.840356 0 0.270445 
542 1 542 0.797651 0.880384 0 0.130131 
543 1 543 0.797614 0.920416 0 0.311986 
544 1 544 0.797613 0.960451 0 1.10703 
545 1 545 0.797626 1.00049 0 1.92837 
546 1 546 0.84 0 0 0 
547 1 547 0.839873 0.0400109 0 -0.551908 
548 1 548 0.839756 0.0800277 0 -0.65388 
549 1 549 0.839635 0.120044 0 -0.387697 
550 1 550 0.839491 0.160062 0 -0.217694 
551 1 551 0.839341 0.20008 0 -0.12362 
552 1 552 0.839204 0.240097 0 0.24172 
553 1 553 0.83908 0.280114 0 1.1283 
554 1 554 0.838957 0.320122 0 2.89958 
555 1 555 0.838831 0.360125 0 4.65159 
556 1 556 0.838702 0.400125 0 5.27586 
557 1 557 0.838571 0.440127 0 4.57904 
558 1 558 0.838448 0.480141 0 2.96041 
559 1 559 0.838333 0.520165 0 1.39965 
560 1 560 0.838224 0.560199 0 0.598682 
561 1 561 0.838124 0.600235 0 0.772485 
562 1 562 0.838031 0.640264 0 1.84517 
563 1 563 0.837943 0.680287 0 2.72812 
564 1 564 0.837865 0.720302 0 2.92744 
565 1 565 0.837784 0.760316 0 2.51947 
566 1 566 0.837703 0.800332 0 1.39458 
567 1 567 0.83763 0.840353 0 0.407293 
568 1 568 0.837572 0.880377 0 0.372963 
569 1 569 0.837534 0.920404 0 0.565061 
570 1 570 0.837533 0.960434 0 1.06785 
571 1 571 0.837545 1.00047 0 1.65343 
572 1 572 0.88 0 0 0 
573 1 573 0.879861 0.0400151 0 -0.0751748 
574 1 574 0.879733 0.0800325 0 -0.408651 
575 1 575 0.879604 0.120052 0 -0.510366 
576 1 576 0.879454 0.160073 0 -0.0676775 
577 1 577 0.8793 0.200089 0 0.531209 
578 1 578 0.87916 0.240103 0 0.928701 
579 1 579 0.879038 0.280116 0 1.44485 
580 1 580 0.87892 0.320123 0 2.8532 
581 1 581 0.8788 0.360125 0 4.37279 
582 1 582 0.878672 0.400123 0 4.93427 
583 1 583 0.878535 0.440124 0 4.3536 
584 1 584 0.8784 0.480137 0 2.7972 
585 1 585 0.878274 0.520159 0 1.24778 
586 1 586 0.878157 0.560191 0 0.501276 
587 1 587 0.878055 0.600225 0 0.636817 
588 1 588 0.877967 0.640254 0 1.65424 
589 1 589 0.877882 0.680278 0 2.49349 
590 1 590 0.877805 0.720294 0 2.56942 
591 1 591 0.877722 0.760311 0 2.21411 
592 1 592 0.877636 0.800327 0 1.39418 
593 1 593 0.877559 0.840348 0 0.667275 
594 1 594 0.877502 0.880369 0 0.782311 
595 1 595 0.877464 0.920392 0 1.00279 
596 1 596 0.877461 0.960418 0 1.24327 
597 1 597 0.877473 1.00045 0 1.60558 
598 1 598 0.92 0 0 0 
599 1 599 0.919853 0.0400153 0 0.21011 
600 1 600 0.919714 0.080032 0 -0.239084 
601 1 601 0.919577 0.120055 0 -0.488038 
602 1 602 0.919425 0.160076 0 0.391297 
603 1 603 0.919271 0.200091 0 1.63838 
604 1 604 0.91913 0.240102 0 2.20093 
605 1 605 0.919005 0.280111 0 2.35962 
606 1 606 0.918892 0.320117 0 3.17131 
607 1 607 0.918777 0.360119 0 4.14372 
608 1 608 0.918649 0.400119 0 4.46445 
609 1 609 0.918506 0.44012 0 3.96891 
610 1 610 0.918359 0.480131 0 2.55538 
611 1 611 0.918222 0.520151 0 1.10884 
612 1 612 0.9181 0.560179 0 0.439458 
613 1 613 0.917999 0.60021 0 0.466305 
614 1 614 0.917915 0.640238 0 1.26176 
615 1 615 0.917835 0.680262 0 1.95488 
616 1 616 0.917756 0.72028 0 1.96428 
617 1 617 0.917671 0.760301 0 1.78854 
618 1 618 0.917581 0.800318 0 1.42829 
619 1 619 0.9175 0.840339 0 1.04673 
620 1 620 0.917441 0.880358 0 1.26636 
621 1 621 0.917402 0.920379 0 1.46469 
622 1 622 0.917398 0.960402 0 1.46208 
623 1 623 0.91741 1.00043 0 1.62778 
624 1 624 0.96 0 0 0 
625 1 625 0.959846 0.0400126 0 0.247488 
626 1 626 0.959698 0.0800277 0 -0.202392 
627 1 627 0.959554 0.120052 0 -0.373313 
628 1 628 0.959403 0.160072 0 0.958889 
629 1 629 0.959253 0.200086 0 2.7582 
630 1 630 0.959112 0.240095 0 3.53322 
631 1 631 0.958985 0.280099 0 3.46806 
632 1 632 0.958871 0.320105 0 3.65577 
633 1 633 0.958756 0.360108 0 3.9326 
634 1 634 0.958626 0.40011 0 3.89381 
635 1 635 0.958477 0.440114 0 3.4578 
636 1 636 0.958321 0.480123 0 2.28585 
637 1 637 0.958173 0.52014 0 1.0287 
638 1 638 0.958043 0.560163 0 0.405177 
639 1 639 0.957938 0.600189 0 0.212709 
640 1 640 0.957856 0.640215 0 0.637791 
641 1 641 0.957778 0.68024 0 1.1318 
642 1 642 0.957699 0.720261 0 1.16241 
643 1 643 0.957614 0.760284 0 1.25491 
644 1 644 0.957525 0.800303 0 1.42751 
645 1 645 0.957444 0.840325 0 1.46331 
646 1 646 0.957388 0.880343 0 1.81439 
647 1 647 0.957349 0.920363 0 2.00653 
648 1 648 0.957344 0.960384 0 1.80326 
649 1 649 0.957356 1.00041 0 1.8018 
650 1 650 1 0 0 0 
651 1 651 0.99984 0.0400085 0 0.137001 
652 1 652 0.999684 0.0800213 0 -0.270691 
653 1 653 0.999534 0.120044 0 -0.297909 
654 1 654 0.999388 0.160062 0 1.35059 
655 1 655 0.999247 0.200075 0 3.52945 
656 1 656 0.999108 0.24008 0 4.58267 
657 1 657 0.998977 0.280081 0 4.46255 
658 1 658 0.99886 0.320085 0 4.05313 
659 1 659 0.998742 0.36009 0 3.59696 
660 1 660 0.998608 0.400096 0 3.21298 
661 1 661 0.998454 0.440103 0 2.93436 
662 1 662 0.998288 0.480112 0 2.20869 
663 1 663 0.998132 0.520125 0 1.32036 
664 1 664 0.997998 0.560143 0 0.809699 
665 1 665 0.997892 0.600163 0 0.390045 
666 1 666 0.997811 0.640187 0 0.352957 
667 1 667 0.997733 0.680211 0 0.548081 
668 1 668 0.997653 0.720235 0 0.564599 
669 1 669 0.997567 0.760262 0 0.862568 
670 1 670 0.997479 0.800283 0 1.48129 
671 1 671 0.997398 0.840306 0 1.9015 
672 1 672 0.997341 0.880324 0 2.38309 
673 1 673 0.997302 0.920343 0 2.5856 
674 1 674 0.997295 0.960362 0 2.21681 
675 1 675 0.997308 1.00038 0 2.06893 
676 1 676 1.04 0 0 0 
677 1 677 1.03983 0.0400043 0 -0.0797997 
678 1 678 1.03967 0.0800143 0 -0.418289 
679 1 679 1.03952 0.120033 0 -0.256043 
680 1 680 1.03938 0.160047 0 1.51997 
681 1 681 1.03925 0.200056 0 3.79067 
682 1 682 1.03911 0.240057 0 5.0705 
683 1 683 1.03898 0.280055 0 5.05791 
684 1 684 1.03885 0.320059 0 4.25632 
685 1 685 1.03873 0.360065 0 3.26376 
686 1 686 1.03859 0.400075 0 2.65009 
687 1 687 1.03843 0.440087 0 2.57212 
688 1 688 1.03826 0.480096 0 2.37793 
689 1 689 1.0381 0.520106 0 1.93137 
690 1 690 1.03796 0.560118 0 1.50973 
691 1 691 1.03784 0.600133 0 0.766675 
692 1 692 1.03775 0.640154 0 0.115798 
693 1 693 1.03767 0.680179 0 -0.106349 
694 1 694 1.0376 0.720205 0 -0.102164 
695 1 695 1.03751 0.760235 0 0.412594 
696 1 696 1.03743 0.800258 0 1.42958 
697 1 697 1.03735 0.840281 0 2.20678 
698 1 698 1.0373 0.880299 0 2.81496 
699 1 699 1.03726 0.920319 0 3.02895 
700 1 700 1.03725 0.960337 0 2.49944 
701 1 701 1.03727 1.00036 0 2.2045 
702 1 702 1.08 0 0 0 
703 1 703 1.07983 0.0400007 0 -0.206456 
704 1 704 1.07966 0.080007 0 -0.374938 
705 1 705 1.0795 0.120018 0 -0.025482 
706 1 706 1.07937 0.160027 0 1.59419 
707 1 707 1.07925 0.200032 0 3.59193 
708 1 708 1.07912 0.240029 0 4.97569 
709 1 709 1.07898 0.280025 0 5.16919 
710 1 710 1.07885 0.320027 0 4.15341 
711 1 711 1.07872 0.360035 0 2.80826 
712 1 712 1.07857 0.40005 0 2.08961 
713 1 713 1.07841 0.440064 0 2.28911 
714 1 714 1.07824 0.480075 0 2.70937 
715 1 715 1.07807 0.520083 0 2.74818 
716 1 716 1.07793 0.56009 0 2.43018 
717 1 717 1.07781 0.600101 0 1.45144 
718 1 718 1.07772 0.640119 0 0.299013 
719 1 719 1.07763 0.680144 0 -0.33626 
720 1 720 1.07755 0.720172 0 -0.460869 
721 1 721 1.07747 0.760203 0 0.0560118 
722 1 722 1.07739 0.800228 0 1.24138 
723 1 723 1.07731 0.840253 0 2.29186 
724 1 724 1.07726 0.880271 0 3.06984 
725 1 725 1.07722 0.92029 0 3.38649 
726 1 726 1.07721 0.960308 0 2.7772 
727 1 727 1.07722 1.00033 0 2.35687 
728 1 728 1.12 0 0 0 
729 1 729 1.11982 0.0399971 0 -0.242099 
730 1 730 1.11965 0.0799986 0 -0.196495 
731 1 731 1.11949 0.120001 0 0.308803 
732 1 732 1.11937 0.160003 0 1.61463 
733 1 733 1.11925 0.200003 0 3.14788 
734 1 734 1.11913 0.239997 0 4.50562 
735 1 735 1.11899 0.279992 0 4.88981 
736 1 736 1.11885 0.319993 0 3.82599 
737 1 737 1.11871 0.360002 0 2.36662 
738 1 738 1.11855 0.40002 0 1.6396 
739 1 739 1.11839 0.440037 0 2.0367 
740 1 740 1.11822 0.480049 0 2.98421 
741 1 741 1.11805 0.520056 0 3.51205 
742 1 742 1.1179 0.560061 0 3.34194 
743 1 743 1.11777 0.600068 0 2.17532 
744 1 744 1.11767 0.640084 0 0.550471 
745 1 745 1.11757 0.680109 0 -0.506927 
746 1 746 1.11749 0.720138 0 -0.758276 
747 1 747 1.11741 0.76017 0 -0.248716 
748 1 748 1.11734 0.800197 0 1.01619 
749 1 749 1.11727 0.840222 0 2.26198 
750 1 750 1.11722 0.880241 0 3.16898 
751 1 751 1.11718 0.92026 0 3.60412 
752 1 752 1.11717 0.960277 0 2.97903 
753 1 753 1.11718 1.0003 0 2.45495 
754 1 754 1.16 0 0 0 
755 1 755 1.15982 0.0399933 0 -0.143671 
756 1 756 1.15964 0.0799891 0 0.27577 
757 1 757 1.15949 0.119982 0 1.01215 
758 1 758 1.15937 0.159977 0 1.87771 
759 1 759 1.15926 0.199971 0 2.69928 
760 1 760 1.15914 0.239963 0 3.79105 
761 1 761 1.159 0.279958 0 4.28015 
762 1 762 1.15885 0.319957 0 3.28025 
763 1 763 1.1587 0.359968 0 1.84643 
764 1 764 1.15854 0.399987 0 1.16463 
765 1 765 1.15837 0.440007 0 1.72019 
766 1 766 1.15821 0.480021 0 3.10872 
767 1 767 1.15804 0.520028 0 4.07334 
768 1 768 1.15789 0.56003 0 4.10965 
769 1 769 1.15775 0.600037 0 2.98649 
770 1 770 1.15764 0.640051 0 1.18437 
771 1 771 1.15754 0.680076 0 -0.185155 
772 1 772 1.15745 0.720106 0 -0.675976 
773 1 773 1.15737 0.760137 0 -0.357918 
774 1 774 1.1573 0.800166 0 0.813521 
775 1 775 1.15723 0.840192 0 2.17159 
776 1 776 1.15718 0.880211 0 3.15704 
777 1 777 1.15715 0.92023 0 3.69645 
778 1 778 1.15713 0.960247 0 3.11376 
779 1 779 1.15714 1.00027 0 2.51097 
780 1 780 1.2 0 0 0 
781 1 781 1.19981 0.0399884 0 0.151515 
782 1 782 1.19964 0.0799774 0 0.975379 
783 1 783 1.19949 0.119962 0 1.85845 
784 1 784 1.19937 0.159949 0 2.24703 
785 1 785 1.19926 0.199937 0 2.3294 
786 1 786 1.19915 0.239928 0 2.95235 
787 1 787 1.19901 0.279925 0 3.35784 