ITEM: TIMESTEP
0
ITEM: NUMBER OF ATOMS
6875
ITEM: BOX BOUNDS sm sm sm
0 4
0 2
0 0
ITEM: ATOMS id type tag x y z damage s11 s22 s33 s12 s13 s23 vx T ienergy 
1 1 1 0.0199944 0.0199958 0 0 -0.120163 -0.107417 -0.0729556 -0.0408336 0 0 0.402748 0 0 
2 1 2 0.0199887 0.0599929 0 0 -0.174983 -0.066505 -0.0774128 -0.0305706 0 0 0.946732 0 0 
3 1 3 0.0199892 0.0999954 0 0 -0.171922 -0.0764045 -0.0796071 -0.017749 0 0 0.699539 0 0 
4 1 4 0.0199897 0.139995 0 0 -0.16418 -0.0827452 -0.0791597 -0.0226871 0 0 0.124506 0 0 
5 1 5 0.0199895 0.179996 0 0 -0.158179 -0.0648614 -0.0714986 -0.0208878 0 0 -0.193565 0 0 
6 1 6 0.0199896 0.219998 0 0 -0.148399 -0.0452755 -0.0620793 -0.0084223 0 0 -0.331292 0 0 
7 1 7 0.0199909 0.260002 0 0 -0.12943 -0.0440401 -0.0555989 0.0110882 0 0 -0.702056 0 0 
8 1 8 0.0199938 0.300004 0 0 -0.0880352 -0.0277189 -0.0370913 0.0214345 0 0 -0.697888 0 0 
9 1 9 0.0199972 0.340004 0 0 -0.0469791 -0.0361942 -0.026645 0.0253366 0 0 -1.00304 0 0 
10 1 10 0.0199989 0.380001 0 0 -0.0263157 -0.0315691 -0.0185385 0.00103815 0 0 -0.903683 0 0 
11 1 11 0.0199981 0.419998 0 0 -0.0354985 -0.0400976 -0.0242148 -0.00843566 0 0 -1.04473 0 0 
12 1 12 0.0199959 0.459995 0 0 -0.0680829 -0.0358784 -0.0333079 -0.0326319 0 0 -0.535682 0 0 
13 1 13 0.0199914 0.499996 0 0 -0.123845 -0.0541946 -0.0570608 -0.0217672 0 0 -0.805583 0 0 
14 1 14 0.0199881 0.539997 0 0 -0.168609 -0.0494583 -0.0699003 -0.0207844 0 0 -0.37518 0 0 
15 1 15 0.0199839 0.580003 0 0 -0.228126 -0.0863081 -0.10082 0.00903523 0 0 -0.476115 0 0 
16 1 16 0.0199824 0.620006 0 0 -0.252173 -0.08597 -0.10843 0.0212556 0 0 -0.341888 0 0 
17 1 17 0.0199809 0.66001 0 0 -0.281327 -0.128655 -0.131493 0.0453426 0 0 -0.344932 0 0 
18 1 18 0.0199798 0.700011 0 0 -0.308583 -0.12961 -0.140552 0.0347169 0 0 0.169948 0 0 
19 1 19 0.0199765 0.740013 0 0 -0.352081 -0.171873 -0.168098 0.0569285 0 0 -0.211558 0 0 
20 1 20 0.0199758 0.780013 0 0 -0.377554 -0.156639 -0.171389 0.0406244 0 0 0.509862 0 0 
21 1 21 0.0199708 0.820018 0 0 -0.428538 -0.180251 -0.19536 0.0749057 0 0 0.418715 0 0 
22 1 22 0.0199722 0.860022 0 0 -0.432677 -0.164703 -0.191694 0.0861262 0 0 0.760041 0 0 
23 1 23 0.0199672 0.900028 0 0 -0.492224 -0.210839 -0.225669 0.107887 0 0 0.903782 0 0 
24 1 24 0.0199682 0.94003 0 0 -0.496697 -0.208013 -0.226199 0.134223 0 0 -0.0940904 0 0 
25 1 25 0.0199486 0.98005 0 0 -0.671904 -0.134089 -0.268765 0.112642 0 0 1.21597 0 0 
26 1 26 0.0599851 0.0199928 0 0 -0.120661 -0.150804 -0.0870339 -0.0614513 0 0 1.07275 0 0 
27 1 27 0.0599686 0.0599867 0 0 -0.126636 -0.0342723 -0.05157 -0.00413263 0 0 2.27925 0 0 
28 1 28 0.0599696 0.0999905 0 0 -0.138931 -0.05969 -0.0636639 0.011604 0 0 1.6031 0 0 
29 1 29 0.0599708 0.139989 0 0 -0.150912 -0.0788918 -0.0736652 -0.00669471 0 0 0.761338 0 0 
30 1 30 0.0599676 0.179992 0 0 -0.172297 -0.053841 -0.0724915 -0.00422035 0 0 0.375438 0 0 
31 1 31 0.0599658 0.219997 0 0 -0.187162 -0.0325698 -0.0704373 0.00662473 0 0 -0.00902411 0 0 
32 1 32 0.0599692 0.260007 0 0 -0.177583 -0.0386482 -0.0693147 0.0313192 0 0 -1.17634 0 0 
33 1 33 0.0599785 0.300012 0 0 -0.131981 -0.0326339 -0.0527596 0.0376893 0 0 -1.41427 0 0 
34 1 34 0.0599894 0.340013 0 0 -0.0982106 -0.0715369 -0.0544044 0.048367 0 0 -1.98489 0 0 
35 1 35 0.0599958 0.380006 0 0 -0.0696584 -0.0811088 -0.0483176 0.0124526 0 0 -1.36081 0 0 
36 1 36 0.0599938 0.419999 0 0 -0.0716005 -0.0799726 -0.0485761 0.014665 0 0 -1.60494 0 0 
37 1 37 0.0599864 0.459992 0 0 -0.106194 -0.0687848 -0.0560827 -0.0270279 0 0 -0.540652 0 0 
38 1 38 0.0599724 0.499994 0 0 -0.162034 -0.0535144 -0.0690949 -0.00417308 0 0 -1.13351 0 0 
39 1 39 0.0599623 0.539999 0 0 -0.205089 -0.0344322 -0.0767854 -0.0164362 0 0 -0.165165 0 0 
40 1 40 0.0599514 0.580011 0 0 -0.254797 -0.0553422 -0.0994436 0.01725 0 0 0.144792 0 0 
41 1 41 0.0599483 0.620021 0 0 -0.260338 -0.0536824 -0.100689 0.0239464 0 0 0.706979 0 0 
42 1 42 0.0599455 0.66003 0 0 -0.289309 -0.104856 -0.126415 0.045712 0 0 1.30991 0 0 
43 1 43 0.0599436 0.700033 0 0 -0.28242 -0.112415 -0.12663 0.0301053 0 0 1.867 0 0 
44 1 44 0.0599364 0.740037 0 0 -0.309542 -0.124798 -0.139314 0.0485491 0 0 1.74653 0 0 
45 1 45 0.0599293 0.780041 0 0 -0.358164 -0.141162 -0.160187 0.0301825 0 0 2.07775 0 0 
46 1 46 0.0599173 0.820051 0 0 -0.384469 -0.0864839 -0.151073 0.0576984 0 0 2.52676 0 0 
47 1 47 0.0599133 0.860065 0 0 -0.446967 -0.145277 -0.190044 0.0798873 0 0 2.14751 0 0 
48 1 48 0.0599076 0.900078 0 0 -0.412777 -0.0933654 -0.162376 0.0827252 0 0 3.30884 0 0 
49 1 49 0.0598957 0.940098 0 0 -0.554262 -0.113203 -0.21422 0.120607 0 0 1.64854 0 0 
50 1 50 0.0598544 0.980132 0 0 -0.513091 0.0394058 -0.15195 -0.00523168 0 0 2.61015 0 0 
51 1 51 0.0999792 0.0199962 0 0 -0.0672299 -0.0877055 -0.0496646 -0.0793593 0 0 1.61324 0 0 
52 1 52 0.099954 0.0599911 0 0 -0.0904177 -0.0411882 -0.0421799 -0.00277689 0 0 2.69436 0 0 
53 1 53 0.0999516 0.0999912 0 0 -0.136394 -0.0713381 -0.0665889 0.0173203 0 0 1.11986 0 0 
54 1 54 0.0999509 0.13999 0 0 -0.157806 -0.0632488 -0.0708606 -0.00706598 0 0 0.749412 0 0 
55 1 55 0.0999429 0.179996 0 0 -0.179059 -0.0416431 -0.0707485 -0.00405367 0 0 1.16161 0 0 
56 1 56 0.0999372 0.220003 0 0 -0.203426 -0.0387661 -0.0776426 0.0114384 0 0 1.08787 0 0 
57 1 57 0.0999416 0.260013 0 0 -0.200929 -0.0388284 -0.0768622 0.0422583 0 0 -0.478566 0 0 
58 1 58 0.0999567 0.300019 0 0 -0.179286 -0.0606601 -0.0769223 0.0480178 0 0 -1.3198 0 0 
59 1 59 0.0999754 0.34002 0 0 -0.144195 -0.0806659 -0.072082 0.0586025 0 0 -1.83767 0 0 
60 1 60 0.0999877 0.380014 0 0 -0.122881 -0.113905 -0.0759072 0.019188 0 0 -0.878506 0 0 
61 1 61 0.0999851 0.420007 0 0 -0.117809 -0.0904783 -0.066766 0.0122532 0 0 -0.893809 0 0 
62 1 62 0.0999712 0.460002 0 0 -0.162602 -0.104809 -0.0857339 -0.0284555 0 0 0.153291 0 0 
63 1 63 0.0999475 0.500003 0 0 -0.193068 -0.0489655 -0.0775926 -0.0119253 0 0 -0.356566 0 0 
64 1 64 0.0999284 0.540011 0 0 -0.241126 -0.0483317 -0.0928081 -0.0139508 0 0 -0.0138462 0 0 
65 1 65 0.0999124 0.580025 0 0 -0.256342 -0.0317314 -0.0923631 0.0113218 0 0 0.285405 0 0 
66 1 66 0.099908 0.620037 0 0 -0.260328 -0.0454102 -0.098032 0.03317 0 0 0.323695 0 0 
67 1 67 0.0999069 0.660049 0 0 -0.248583 -0.051711 -0.0962847 0.0347138 0 0 1.39596 0 0 
68 1 68 0.0999045 0.700057 0 0 -0.265674 -0.0963421 -0.116094 0.0432364 0 0 1.10834 0 0 
69 1 69 0.0998973 0.740064 0 0 -0.248447 -0.0580113 -0.0982619 0.0323808 0 0 1.69393 0 0 
70 1 70 0.0998819 0.780073 0 0 -0.316027 -0.103536 -0.13457 0.0297782 0 0 2.14064 0 0 
71 1 71 0.0998636 0.820085 0 0 -0.329408 -0.0335184 -0.116386 0.0360337 0 0 3.12829 0 0 
72 1 72 0.099853 0.860105 0 0 -0.388022 -0.0770076 -0.149172 0.0771082 0 0 3.44397 0 0 
73 1 73 0.0998455 0.900126 0 0 -0.41825 -0.0330417 -0.144757 0.0739755 0 0 4.92064 0 0 
74 1 74 0.09982 0.940157 0 0 -0.434775 0.0212967 -0.132612 0.021228 0 0 4.60409 0 0 
75 1 75 0.0997758 0.980191 0 0 -0.449217 -0.0159456 -0.149212 0.00573796 0 0 3.43168 0 0 
76 1 76 0.139979 0.0199999 0 0 0.015766 0.00163731 0.00557353 -0.0865573 0 0 1.73691 0 0 
77 1 77 0.139948 0.0599956 0 0 -0.0229448 -0.0494787 -0.0232081 -0.028157 0 0 2.71801 0 0 
78 1 78 0.139938 0.0999918 0 0 -0.0895146 -0.0559173 -0.0466154 -0.0051396 0 0 1.33408 0 0 
79 1 79 0.139931 0.139994 0 0 -0.126729 -0.0173428 -0.0461765 -0.0215815 0 0 1.6687 0 0 
80 1 80 0.139918 0.180002 0 0 -0.174313 -0.03583 -0.0673634 -0.0233885 0 0 2.49458 0 0 
81 1 81 0.139908 0.220009 0 0 -0.201536 -0.0444261 -0.0788526 -0.00276695 0 0 2.64339 0 0 
82 1 82 0.139912 0.260017 0 0 -0.212741 -0.0542272 -0.0855923 0.0331654 0 0 1.18384 0 0 
83 1 83 0.139931 0.300021 0 0 -0.215873 -0.0879257 -0.09741 0.0469139 0 0 0.218985 0 0 
84 1 84 0.139955 0.340023 0 0 -0.199961 -0.0944644 -0.0944007 0.0540985 0 0 0.113004 0 0 
85 1 85 0.139971 0.38002 0 0 -0.203658 -0.133772 -0.1082 0.0160048 0 0 0.882018 0 0 
86 1 86 0.139968 0.420016 0 0 -0.202683 -0.113539 -0.101394 -0.00934686 0 0 1.15057 0 0 
87 1 87 0.139948 0.460013 0 0 -0.231842 -0.114893 -0.111187 -0.0411981 0 0 1.90577 0 0 
88 1 88 0.139918 0.500017 0 0 -0.245694 -0.0766763 -0.103368 -0.0337185 0 0 1.62774 0 0 
89 1 89 0.139892 0.540025 0 0 -0.276431 -0.0571628 -0.10697 -0.0263348 0 0 1.886 0 0 
90 1 90 0.139874 0.580039 0 0 -0.283664 -0.0451577 -0.105439 0.00557226 0 0 2.22303 0 0 
91 1 91 0.139869 0.620052 0 0 -0.283747 -0.0438113 -0.105034 0.033122 0 0 2.49125 0 0 
92 1 92 0.139871 0.660067 0 0 -0.26848 -0.0390587 -0.0986097 0.0380566 0 0 3.48282 0 0 
93 1 93 0.13987 0.70008 0 0 -0.262604 -0.0490536 -0.0999319 0.042591 0 0 3.28319 0 0 
94 1 94 0.139861 0.740093 0 0 -0.265984 -0.0383045 -0.0975661 0.0385145 0 0 3.30872 0 0 
95 1 95 0.139842 0.780108 0 0 -0.268398 -0.0297296 -0.0955891 0.0234667 0 0 4.21096 0 0 
96 1 96 0.139817 0.820125 0 0 -0.288111 -0.0207403 -0.0990293 0.0456944 0 0 5.09366 0 0 
97 1 97 0.1398 0.860146 0 0 -0.324655 0.00367596 -0.10292 0.0687193 0 0 6.03896 0 0 
98 1 98 0.139783 0.900175 0 0 -0.36989 0.0183576 -0.112725 0.0593135 0 0 6.84683 0 0 
99 1 99 0.139752 0.940205 0 0 -0.401404 0.000307899 -0.12864 0.0183806 0 0 6.31745 0 0 
100 1 100 0.139706 0.98024 0 0 -0.39091 0.0493363 -0.109533 -0.00782358 0 0 4.52569 0 0 
101 1 101 0.179981 0.0200007 0 0 0.0367494 0.0254208 0.0199208 -0.0818943 0 0 0.646533 0 0 
102 1 102 0.17995 0.0599954 0 0 -0.00288478 -0.0640137 -0.0214335 -0.0560561 0 0 1.32144 0 0 
103 1 103 0.179931 0.0999917 0 0 -0.0408781 -0.0169373 -0.0185278 -0.0288996 0 0 1.46641 0 0 
104 1 104 0.179914 0.139996 0 0 -0.0926735 0.0144225 -0.0250771 -0.0391755 0 0 2.422 0 0 
105 1 105 0.179894 0.180003 0 0 -0.160352 -0.0417159 -0.0647754 -0.0407427 0 0 3.36819 0 0 
106 1 106 0.179881 0.22001 0 0 -0.168878 -0.0315766 -0.0642555 -0.0133928 0 0 3.99682 0 0 
107 1 107 0.179884 0.260016 0 0 -0.189964 -0.0668535 -0.0823354 0.0220787 0 0 3.12216 0 0 
108 1 108 0.179904 0.300019 0 0 -0.200183 -0.0812293 -0.0902263 0.0419316 0 0 2.19418 0 0 
109 1 109 0.179929 0.340021 0 0 -0.213244 -0.0928635 -0.0981496 0.0456289 0 0 2.25071 0 0 
110 1 110 0.179945 0.380021 0 0 -0.228129 -0.104647 -0.106706 0.014755 0 0 2.82402 0 0 
111 1 111 0.17994 0.420023 0 0 -0.243651 -0.110445 -0.113548 -0.0170503 0 0 3.4512 0 0 
112 1 112 0.179916 0.460024 0 0 -0.260778 -0.093848 -0.113719 -0.046142 0 0 4.14788 0 0 
113 1 113 0.179881 0.500031 0 0 -0.284752 -0.0957024 -0.122011 -0.03841 0 0 3.46551 0 0 
114 1 114 0.17985 0.540039 0 0 -0.294599 -0.0705893 -0.11711 -0.0323914 0 0 3.48605 0 0 
115 1 115 0.179829 0.580052 0 0 -0.290746 -0.0440791 -0.107364 0.0101023 0 0 2.88606 0 0 
116 1 116 0.179825 0.620067 0 0 -0.289113 -0.0439681 -0.106806 0.0306873 0 0 2.87989 0 0 
117 1 117 0.179827 0.660084 0 0 -0.271263 -0.00738941 -0.0893405 0.0450155 0 0 3.14216 0 0 
118 1 118 0.179828 0.700103 0 0 -0.262559 -0.00998222 -0.0873802 0.0402638 0 0 3.10424 0 0 
119 1 119 0.179818 0.740124 0 0 -0.254654 0.0212173 -0.0748335 0.0303509 0 0 3.5682 0 0 
120 1 120 0.179798 0.780145 0 0 -0.267179 0.00481051 -0.0841148 0.0231171 0 0 4.32079 0 0 
121 1 121 0.179772 0.820168 0 0 -0.265182 0.0228577 -0.0776827 0.032078 0 0 6.13029 0 0 
122 1 122 0.179748 0.860192 0 0 -0.302393 0.0144834 -0.092307 0.0517976 0 0 7.42695 0 0 
123 1 123 0.179725 0.900221 0 0 -0.309792 0.0608753 -0.0797959 0.038397 0 0 8.55145 0 0 
124 1 124 0.179691 0.940253 0 0 -0.356095 0.00812129 -0.111588 0.00238852 0 0 8.00364 0 0 
125 1 125 0.179646 0.980282 0 0 -0.320391 0.0426856 -0.0890377 -0.00896941 0 0 6.52175 0 0 
126 1 126 0.219985 0.0199993 0 0 0.0286389 0.00507991 0.0108073 -0.0660974 0 0 -0.428126 0 0 
127 1 127 0.219955 0.0599938 0 0 0.0154513 -0.043015 -0.00882341 -0.0672814 0 0 0.141874 0 0 
128 1 128 0.219926 0.0999933 0 0 -0.0171312 0.0188252 0.000547419 -0.050887 0 0 1.45689 0 0 
129 1 129 0.219898 0.139999 0 0 -0.0878944 0.0106902 -0.0247397 -0.0533088 0 0 2.67944 0 0 
130 1 130 0.219874 0.180005 0 0 -0.119666 -0.0277991 -0.0472657 -0.0374787 0 0 4.06759 0 0 
131 1 131 0.219862 0.220011 0 0 -0.0957312 -0.00748088 -0.0330756 -0.00587568 0 0 5.29923 0 0 
132 1 132 0.219864 0.260014 0 0 -0.135335 -0.0701694 -0.0658751 0.0175849 0 0 4.99188 0 0 
133 1 133 0.21988 0.300014 0 0 -0.167971 -0.0637038 -0.0742691 0.0367798 0 0 4.43 0 0 
134 1 134 0.219901 0.340018 0 0 -0.215984 -0.0755294 -0.0934671 0.0393431 0 0 4.83298 0 0 
135 1 135 0.219914 0.380023 0 0 -0.251019 -0.0708299 -0.103201 0.0147655 0 0 5.22928 0 0 
136 1 136 0.219906 0.420032 0 0 -0.278968 -0.0821154 -0.115795 -0.015526 0 0 5.70258 0 0 
137 1 137 0.219879 0.460039 0 0 -0.292079 -0.0894233 -0.12235 -0.041758 0 0 6.22598 0 0 
138 1 138 0.219842 0.500048 0 0 -0.295092 -0.0809819 -0.120607 -0.0348282 0 0 5.62291 0 0 
139 1 139 0.219808 0.540057 0 0 -0.312209 -0.0994104 -0.132019 -0.026014 0 0 5.73471 0 0 
140 1 140 0.219787 0.580067 0 0 -0.303283 -0.0528741 -0.114212 0.0147145 0 0 5.07283 0 0 
141 1 141 0.219781 0.620082 0 0 -0.33026 -0.0641352 -0.126489 0.0302615 0 0 5.01597 0 0 
142 1 142 0.219782 0.660101 0 0 -0.321784 -0.00721151 -0.105496 0.0446369 0 0 4.93057 0 0 
143 1 143 0.219782 0.700125 0 0 -0.336526 -0.00683941 -0.110108 0.0389924 0 0 4.69269 0 0 
144 1 144 0.219772 0.740152 0 0 -0.319023 0.0256837 -0.0940521 0.0227419 0 0 5.28984 0 0 
145 1 145 0.219753 0.780179 0 0 -0.296163 0.0304649 -0.0851817 0.016604 0 0 6.08044 0 0 
146 1 146 0.219727 0.820206 0 0 -0.284229 0.0258742 -0.0828252 0.0107513 0 0 7.73498 0 0 
147 1 147 0.2197 0.860232 0 0 -0.288524 0.0273705 -0.0837241 0.0189633 0 0 8.80644 0 0 
148 1 148 0.219672 0.900261 0 0 -0.290394 0.0607578 -0.0736124 0.0104937 0 0 9.46582 0 0 
149 1 149 0.219636 0.94029 0 0 -0.315859 0.0134627 -0.0969593 -0.0249937 0 0 9.49357 0 0 
150 1 150 0.219594 0.980317 0 0 -0.283397 0.0463607 -0.0759877 -0.0175633 0 0 8.65723 0 0 
151 1 151 0.259989 0.0199989 0 0 0.0178078 -0.00981734 0.00256256 -0.0457699 0 0 -0.884007 0 0 
152 1 152 0.259959 0.0599945 0 0 0.0143246 -0.0208929 -0.00209542 -0.0739533 0 0 -0.496623 0 0 
153 1 153 0.259921 0.0999962 0 0 -0.0210508 0.029194 0.00261703 -0.0780278 0 0 1.1894 0 0 
154 1 154 0.259885 0.140002 0 0 -0.0729047 0.00541823 -0.0216214 -0.063564 0 0 2.8036 0 0 
155 1 155 0.25986 0.180008 0 0 -0.0594004 0.00750359 -0.0166279 -0.0312697 0 0 4.35087 0 0 
156 1 156 0.25985 0.220012 0 0 -0.060375 -0.0198674 -0.0257124 -0.00975238 0 0 5.2632 0 0 
157 1 157 0.25985 0.260011 0 0 -0.106846 -0.0747582 -0.0582102 0.00215949 0 0 5.46691 0 0 
158 1 158 0.25986 0.30001 0 0 -0.127838 -0.035974 -0.0525039 0.0254616 0 0 5.67117 0 0 
159 1 159 0.259873 0.340017 0 0 -0.181026 -0.0324451 -0.0684299 0.0253415 0 0 6.10763 0 0 
160 1 160 0.259878 0.380027 0 0 -0.229873 -0.0210233 -0.0804355 0.00740374 0 0 6.11953 0 0 
161 1 161 0.259867 0.420044 0 0 -0.255699 -0.0193188 -0.0881763 -0.0175261 0 0 6.64315 0 0 
162 1 162 0.259838 0.460057 0 0 -0.275944 -0.0591575 -0.107459 -0.0361889 0 0 7.08384 0 0 
163 1 163 0.259802 0.500068 0 0 -0.265765 -0.0551982 -0.102921 -0.0310384 0 0 6.6136 0 0 
164 1 164 0.259767 0.540078 0 0 -0.275991 -0.0861708 -0.116143 -0.0226074 0 0 6.41782 0 0 
165 1 165 0.259743 0.580087 0 0 -0.273835 -0.061257 -0.107452 0.0161202 0 0 5.07089 0 0 
166 1 166 0.259733 0.6201 0 0 -0.291956 -0.0399967 -0.106444 0.0264886 0 0 4.53689 0 0 
167 1 167 0.259729 0.66012 0 0 -0.305017 0.00298969 -0.09684 0.0416701 0 0 3.8284 0 0 
168 1 168 0.259726 0.700146 0 0 -0.314991 0.0397828 -0.0882341 0.0305755 0 0 3.9036 0 0 
169 1 169 0.259716 0.740178 0 0 -0.325396 0.0416795 -0.0909635 0.0243854 0 0 4.70976 0 0 
170 1 170 0.2597 0.780208 0 0 -0.303788 0.0424614 -0.0837794 0.0183036 0 0 5.96399 0 0 
171 1 171 0.259678 0.820237 0 0 -0.280581 0.037894 -0.0777989 0.000409062 0 0 8.39846 0 0 
172 1 172 0.25965 0.860263 0 0 -0.298129 0.0112778 -0.0919701 -0.000608285 0 0 9.38055 0 0 
173 1 173 0.25962 0.900291 0 0 -0.288967 0.0621793 -0.0726997 -0.0132632 0 0 10.075 0 0 
174 1 174 0.259585 0.94032 0 0 -0.310517 0.00166247 -0.0990316 -0.0295673 0 0 10.8475 0 0 
175 1 175 0.259548 0.980344 0 0 -0.255233 0.0496625 -0.0658931 -0.0201537 0 0 11.2105 0 0 
176 1 176 0.29999 0.0199989 0 0 -0.0120746 -0.0248774 -0.0118404 -0.0390545 0 0 -1.00185 0 0 
177 1 177 0.29996 0.0599959 0 0 -0.0356793 -0.0293074 -0.0208193 -0.0908526 0 0 -0.718457 0 0 
178 1 178 0.299914 0.0999981 0 0 -0.0574214 0.00943608 -0.0153686 -0.102685 0 0 1.37651 0 0 
179 1 179 0.299873 0.140003 0 0 -0.0761465 -0.00823261 -0.0270344 -0.0685635 0 0 3.2023 0 0 
180 1 180 0.299851 0.180008 0 0 -0.051315 0.00449491 -0.0149991 -0.0346096 0 0 3.92211 0 0 
181 1 181 0.299842 0.220008 0 0 -0.0650401 -0.0511057 -0.0372209 -0.0234213 0 0 4.36392 0 0 
182 1 182 0.29984 0.260006 0 0 -0.0732919 -0.0512736 -0.0399202 -0.0128652 0 0 5.60503 0 0 
183 1 183 0.299844 0.300007 0 0 -0.0986659 -0.00661292 -0.0337365 0.00453621 0 0 6.38296 0 0 
184 1 184 0.299846 0.340017 0 0 -0.181838 -0.0102287 -0.0615639 -0.00382657 0 0 6.49101 0 0 
185 1 185 0.299841 0.380032 0 0 -0.232865 0.0236978 -0.0670487 -0.00862301 0 0 6.36968 0 0 
186 1 186 0.299826 0.420056 0 0 -0.25084 0.022672 -0.0731449 -0.0193426 0 0 6.91349 0 0 
187 1 187 0.299799 0.460075 0 0 -0.250245 -0.0122693 -0.0841661 -0.0338591 0 0 7.41511 0 0 
188 1 188 0.299765 0.50009 0 0 -0.23875 -0.0344442 -0.0875926 -0.0266073 0 0 7.31816 0 0 
189 1 189 0.299733 0.5401 0 0 -0.236552 -0.0659014 -0.0969788 -0.0195336 0 0 7.5655 0 0 
190 1 190 0.299707 0.580108 0 0 -0.248895 -0.0585434 -0.0985765 0.00763092 0 0 6.70747 0 0 
191 1 191 0.299691 0.620121 0 0 -0.294341 -0.0435483 -0.108349 0.0166773 0 0 6.04162 0 0 
192 1 192 0.29968 0.660141 0 0 -0.333197 -0.00736121 -0.109205 0.0329144 0 0 5.07496 0 0 
193 1 193 0.299671 0.700168 0 0 -0.364944 0.0238908 -0.109364 0.0216851 0 0 5.31242 0 0 
194 1 194 0.299659 0.740202 0 0 -0.36499 0.0464431 -0.10214 0.0220844 0 0 6.20352 0 0 
195 1 195 0.299646 0.780234 0 0 -0.355208 0.0187393 -0.107893 0.0272502 0 0 7.32867 0 0 
196 1 196 0.299629 0.820264 0 0 -0.313735 0.0291779 -0.091233 0.00546259 0 0 9.39437 0 0 
197 1 197 0.299602 0.86029 0 0 -0.303723 0.00169153 -0.0968408 -0.00786092 0 0 10.2965 0 0 
198 1 198 0.29957 0.900317 0 0 -0.286193 0.0565804 -0.0736055 -0.0171283 0 0 10.8358 0 0 
199 1 199 0.299536 0.940344 0 0 -0.298147 0.00201788 -0.0949482 -0.0251465 0 0 11.9572 0 0 
200 1 200 0.299505 0.980367 0 0 -0.234383 0.0381889 -0.0628861 -0.0102139 0 0 13.372 0 0 
201 1 201 0.339989 0.0199977 0 0 -0.0475384 -0.0544889 -0.0326978 -0.0498183 0 0 -0.681035 0 0 
202 1 202 0.339953 0.0599949 0 0 -0.0748974 -0.0352395 -0.0352938 -0.109457 0 0 -0.162896 0 0 
203 1 203 0.339902 0.0999972 0 0 -0.0847493 -0.0143667 -0.0317594 -0.118153 0 0 1.71554 0 0 
204 1 204 0.339861 0.14 0 0 -0.095626 -0.0353032 -0.0419584 -0.0747141 0 0 2.74505 0 0 
205 1 205 0.339841 0.180002 0 0 -0.0819653 -0.0330159 -0.0368472 -0.0411247 0 0 2.58272 0 0 
206 1 206 0.339834 0.219999 0 0 -0.0849755 -0.0663062 -0.0484856 -0.0304849 0 0 3.20123 0 0 
207 1 207 0.339831 0.259998 0 0 -0.0847685 -0.0383775 -0.0394643 -0.0276157 0 0 4.94718 0 0 
208 1 208 0.339826 0.300001 0 0 -0.126662 -0.00894052 -0.0434575 -0.0286393 0 0 5.67364 0 0 
209 1 209 0.339816 0.340014 0 0 -0.185947 0.015013 -0.0547854 -0.0365279 0 0 5.77259 0 0 
210 1 210 0.339802 0.380036 0 0 -0.200188 0.0807095 -0.038286 -0.0280851 0 0 5.88118 0 0 
211 1 211 0.339784 0.420065 0 0 -0.216316 0.0713804 -0.0464491 -0.0289785 0 0 6.21074 0 0 
212 1 212 0.339761 0.460089 0 0 -0.205094 0.0370707 -0.0538548 -0.0351042 0 0 6.72952 0 0 
213 1 213 0.339732 0.500108 0 0 -0.168493 0.0231578 -0.0465797 -0.0319047 0 0 7.3447 0 0 
214 1 214 0.339703 0.54012 0 0 -0.16369 -0.0285099 -0.0616063 -0.0215203 0 0 7.23423 0 0 
215 1 215 0.339676 0.580129 0 0 -0.153162 -0.00852827 -0.0518209 -0.0101054 0 0 6.34447 0 0 
216 1 216 0.339651 0.620142 0 0 -0.190287 0.00755785 -0.0585679 -0.00787995 0 0 5.41644 0 0 
217 1 217 0.33963 0.660163 0 0 -0.236041 0.0435438 -0.0617009 0.0136274 0 0 3.93452 0 0 
218 1 218 0.339614 0.700191 0 0 -0.280749 0.0627103 -0.0698935 0.00759982 0 0 4.4962 0 0 
219 1 219 0.339598 0.740224 0 0 -0.304968 0.0736188 -0.0741628 0.0208374 0 0 5.56824 0 0 
220 1 220 0.339589 0.780257 0 0 -0.307959 0.0553732 -0.080977 0.0260307 0 0 7.31448 0 0 
221 1 221 0.339576 0.820289 0 0 -0.297673 0.0380913 -0.0832208 0.0108917 0 0 9.40836 0 0 
222 1 222 0.339552 0.860314 0 0 -0.308196 0.000821002 -0.0985566 -0.0125909 0 0 10.4462 0 0 
223 1 223 0.339519 0.900341 0 0 -0.285432 0.0514003 -0.0750234 -0.0261248 0 0 11.4596 0 0 
224 1 224 0.339488 0.940367 0 0 -0.29165 -0.0143711 -0.0981233 -0.0111743 0 0 12.8907 0 0 
225 1 225 0.339466 0.980387 0 0 -0.222461 0.0298593 -0.0617353 -0.000514098 0 0 15.2359 0 0 
226 1 226 0.379984 0.0199961 0 0 -0.0829447 -0.0902077 -0.0554999 -0.0697826 0 0 -0.0977097 0 0 
227 1 227 0.379941 0.0599926 0 0 -0.114874 -0.0455495 -0.051416 -0.117944 0 0 0.753513 0 0 
228 1 228 0.379888 0.0999936 0 0 -0.132864 -0.0622055 -0.0625274 -0.123299 0 0 2.03568 0 0 
229 1 229 0.379847 0.139991 0 0 -0.134187 -0.0813397 -0.0690892 -0.0811207 0 0 2.5728 0 0 
230 1 230 0.379828 0.17999 0 0 -0.123187 -0.0747031 -0.0634339 -0.0473802 0 0 2.12005 0 0 
231 1 231 0.379822 0.219985 0 0 -0.133302 -0.0856985 -0.0702044 -0.0421142 0 0 2.41505 0 0 
232 1 232 0.379816 0.259986 0 0 -0.145011 -0.0491928 -0.0622504 -0.0519487 0 0 3.87363 0 0 
233 1 233 0.379802 0.299992 0 0 -0.182675 -0.0240741 -0.0662733 -0.0604203 0 0 4.81674 0 0 
234 1 234 0.379782 0.340009 0 0 -0.208314 0.0409744 -0.0536328 -0.0639329 0 0 5.2581 0 0 
235 1 235 0.379761 0.380035 0 0 -0.229383 0.0827493 -0.0469923 -0.0484107 0 0 5.19214 0 0 
236 1 236 0.379742 0.420066 0 0 -0.228859 0.0902568 -0.0444178 -0.043924 0 0 5.53745 0 0 
237 1 237 0.379724 0.460095 0 0 -0.196938 0.0693927 -0.0408744 -0.0338702 0 0 6.26243 0 0 
238 1 238 0.379705 0.500118 0 0 -0.144086 0.0537952 -0.0289315 -0.0366215 0 0 7.70335 0 0 
239 1 239 0.379681 0.540134 0 0 -0.133072 0.0102812 -0.0393485 -0.0366102 0 0 8.31985 0 0 
240 1 240 0.379653 0.580146 0 0 -0.1497 0.00620686 -0.0459852 -0.0327891 0 0 7.94728 0 0 
241 1 241 0.379622 0.620161 0 0 -0.19424 0.0153856 -0.0573256 -0.0400701 0 0 7.57191 0 0 
242 1 242 0.379591 0.660182 0 0 -0.248376 0.0451873 -0.0651308 -0.0184933 0 0 6.26234 0 0 
243 1 243 0.379565 0.700211 0 0 -0.297316 0.0580859 -0.076692 -0.015574 0 0 6.80351 0 0 
244 1 244 0.379545 0.740245 0 0 -0.321335 0.0588678 -0.0841468 0.0115537 0 0 7.7054 0 0 
245 1 245 0.379535 0.780277 0 0 -0.33243 0.0423625 -0.093004 0.0244077 0 0 9.05339 0 0 
246 1 246 0.379525 0.820309 0 0 -0.306127 0.0500564 -0.0820956 0.00931549 0 0 10.535 0 0 
247 1 247 0.379503 0.860337 0 0 -0.308956 0.000665382 -0.0988515 -0.0195353 0 0 11.3924 0 0 
248 1 248 0.379471 0.900362 0 0 -0.276263 0.0451374 -0.0740919 -0.0299288 0 0 12.1623 0 0 
249 1 249 0.379444 0.940386 0 0 -0.269665 -0.0164217 -0.0917263 -0.00478498 0 0 13.634 0 0 
250 1 250 0.37943 0.980404 0 0 -0.214818 0.0168922 -0.063443 0.00739778 0 0 16.5552 0 0 
251 1 251 0.419977 0.0199954 0 0 -0.102167 -0.109614 -0.0678879 -0.0988844 0 0 0.439907 0 0 
252 1 252 0.419925 0.0599901 0 0 -0.139482 -0.0645805 -0.0654093 -0.125369 0 0 1.44088 0 0 
253 1 253 0.419871 0.0999877 0 0 -0.156802 -0.110842 -0.0858075 -0.122878 0 0 2.03434 0 0 
254 1 254 0.419832 0.13998 0 0 -0.145773 -0.118497 -0.0847265 -0.0836464 0 0 2.25295 0 0 
255 1 255 0.419813 0.179974 0 0 -0.155162 -0.108868 -0.0846509 -0.056585 0 0 1.52625 0 0 
256 1 256 0.419803 0.219968 0 0 -0.1917 -0.112753 -0.0976208 -0.0552742 0 0 1.50926 0 0 
257 1 257 0.419791 0.259971 0 0 -0.198251 -0.0483479 -0.0790574 -0.0669176 0 0 3.18658 0 0 
258 1 258 0.419771 0.299981 0 0 -0.228076 -0.0276379 -0.0819815 -0.0759152 0 0 4.40319 0 0 
259 1 259 0.419743 0.340001 0 0 -0.233384 0.0521233 -0.0580982 -0.0839342 0 0 4.78832 0 0 
260 1 260 0.419716 0.380029 0 0 -0.250953 0.0739722 -0.0567249 -0.0628885 0 0 4.58732 0 0 
261 1 261 0.419698 0.420061 0 0 -0.224098 0.101603 -0.0392552 -0.0448969 0 0 5.20922 0 0 
262 1 262 0.419688 0.460093 0 0 -0.176064 0.105718 -0.0225401 -0.0314729 0 0 6.19695 0 0 
263 1 263 0.419676 0.500119 0 0 -0.142056 0.0681432 -0.0236827 -0.0366764 0 0 7.48123 0 0 
264 1 264 0.419659 0.540138 0 0 -0.0966013 0.0580689 -0.0123412 -0.0450953 0 0 8.18895 0 0 
265 1 265 0.419631 0.580156 0 0 -0.0756831 0.0711024 -0.00146062 -0.0598624 0 0 8.02099 0 0 
266 1 266 0.419592 0.620173 0 0 -0.108598 0.0691102 -0.0126473 -0.0712756 0 0 7.22569 0 0 
267 1 267 0.419551 0.660197 0 0 -0.142951 0.103608 -0.0126016 -0.0530051 0 0 6.061 0 0 
268 1 268 0.419517 0.700226 0 0 -0.194222 0.104038 -0.028897 -0.0440352 0 0 6.79165 0 0 
269 1 269 0.419492 0.74026 0 0 -0.228033 0.10802 -0.0384598 -0.01076 0 0 7.82643 0 0 
270 1 270 0.419481 0.780293 0 0 -0.270669 0.0688783 -0.0646846 0.0103117 0 0 9.2956 0 0 
271 1 271 0.419472 0.820325 0 0 -0.276161 0.0758575 -0.0642075 0.00827427 0 0 10.4205 0 0 
272 1 272 0.419453 0.860355 0 0 -0.293093 0.019925 -0.0875818 -0.0268929 0 0 11.7488 0 0 
273 1 273 0.419424 0.90038 0 0 -0.26274 0.0336198 -0.0734492 -0.0286746 0 0 12.6865 0 0 
274 1 274 0.419403 0.940401 0 0 -0.252387 -0.0164785 -0.0862009 0.00357389 0 0 14.1182 0 0 
275 1 275 0.419394 0.980418 0 0 -0.217583 0.00956363 -0.0666809 0.00722332 0 0 17.0882 0 0 
276 1 276 0.459969 0.0199947 0 0 -0.109671 -0.121598 -0.0741401 -0.134991 0 0 0.861343 0 0 
277 1 277 0.459908 0.0599864 0 0 -0.150815 -0.0947322 -0.078716 -0.132826 0 0 2.10583 0 0 
278 1 278 0.459855 0.0999796 0 0 -0.160429 -0.14553 -0.098101 -0.117471 0 0 2.33714 0 0 
279 1 279 0.459818 0.139967 0 0 -0.154815 -0.149818 -0.0976774 -0.0866953 0 0 2.39071 0 0 
280 1 280 0.459795 0.179958 0 0 -0.186893 -0.1384 -0.104309 -0.0701258 0 0 1.82402 0 0 
281 1 281 0.459778 0.219952 0 0 -0.23308 -0.120923 -0.113523 -0.0635755 0 0 1.83967 0 0 
282 1 282 0.45976 0.259958 0 0 -0.241643 -0.0411068 -0.0906551 -0.0721192 0 0 3.22162 0 0 
283 1 283 0.459732 0.299971 0 0 -0.284057 -0.0368268 -0.102893 -0.0853942 0 0 3.94759 0 0 
284 1 284 0.459698 0.339993 0 0 -0.285179 0.0307784 -0.081559 -0.0914405 0 0 4.33322 0 0 
285 1 285 0.459668 0.380021 0 0 -0.28372 0.0544909 -0.0734841 -0.0654509 0 0 4.73569 0 0 
286 1 286 0.459653 0.420053 0 0 -0.262253 0.0788678 -0.0587812 -0.0387158 0 0 5.2582 0 0 
287 1 287 0.459648 0.460084 0 0 -0.222588 0.08461 -0.0442224 -0.024546 0 0 6.09737 0 0 
288 1 288 0.459646 0.500112 0 0 -0.182396 0.0722627 -0.0352946 -0.037053 0 0 7.97309 0 0 
289 1 289 0.459634 0.540135 0 0 -0.166252 0.0530288 -0.0362824 -0.0481785 0 0 8.9629 0 0 
290 1 290 0.459608 0.580157 0 0 -0.166157 0.0560407 -0.0352848 -0.0814483 0 0 9.7065 0 0 
291 1 291 0.459566 0.620179 0 0 -0.195916 0.0521985 -0.0460583 -0.102894 0 0 9.96708 0 0 
292 1 292 0.459517 0.660206 0 0 -0.230315 0.0704625 -0.0512324 -0.0849475 0 0 9.2146 0 0 
293 1 293 0.459476 0.700235 0 0 -0.265959 0.0616209 -0.0654994 -0.0692033 0 0 9.83285 0 0 
294 1 294 0.459447 0.740267 0 0 -0.271497 0.0897392 -0.0582582 -0.0345547 0 0 10.5503 0 0 
295 1 295 0.459432 0.780301 0 0 -0.301436 0.0598734 -0.0774422 -0.0143984 0 0 11.398 0 0 
296 1 296 0.459422 0.820335 0 0 -0.286608 0.0877962 -0.0637291 -0.00527987 0 0 11.6595 0 0 
297 1 297 0.459405 0.860367 0 0 -0.288356 0.0354507 -0.0810806 -0.0326292 0 0 12.7015 0 0 
298 1 298 0.459381 0.900393 0 0 -0.248161 0.0319975 -0.0692932 -0.0252796 0 0 13.3603 0 0 
299 1 299 0.459365 0.940413 0 0 -0.233814 -0.0072327 -0.0772766 0.0040429 0 0 14.7061 0 0 
300 1 300 0.459357 0.980431 0 0 -0.226548 0.00112954 -0.0722616 0.00499465 0 0 17.1728 0 0 
301 1 301 0.499961 0.0199935 0 0 -0.102721 -0.132491 -0.075406 -0.167331 0 0 0.737679 0 0 
302 1 302 0.499893 0.0599813 0 0 -0.13148 -0.117984 -0.0799732 -0.133823 0 0 1.76782 0 0 
303 1 303 0.499843 0.0999703 0 0 -0.130478 -0.155619 -0.0917269 -0.109177 0 0 1.88422 0 0 
304 1 304 0.499806 0.139954 0 0 -0.132696 -0.15711 -0.092919 -0.0936574 0 0 2.08405 0 0 
305 1 305 0.499776 0.179943 0 0 -0.176964 -0.139874 -0.101596 -0.0884304 0 0 2.05567 0 0 
306 1 306 0.499749 0.219939 0 0 -0.230685 -0.0974302 -0.105213 -0.0785526 0 0 2.18622 0 0 
307 1 307 0.499722 0.259947 0 0 -0.26653 -0.0357097 -0.0969082 -0.0843225 0 0 3.05496 0 0 
308 1 308 0.499687 0.299963 0 0 -0.309468 -0.0341904 -0.110201 -0.0959612 0 0 3.75492 0 0 
309 1 309 0.499649 0.339986 0 0 -0.297692 0.0262321 -0.0870312 -0.0915994 0 0 4.44942 0 0 
310 1 310 0.499619 0.380013 0 0 -0.29893 0.0247393 -0.0879078 -0.0647938 0 0 4.94942 0 0 
311 1 311 0.499604 0.420041 0 0 -0.284517 0.0541964 -0.0738354 -0.0410867 0 0 5.38905 0 0 
312 1 312 0.499603 0.460071 0 0 -0.273624 0.0491022 -0.0719779 -0.0166092 0 0 5.95629 0 0 
313 1 313 0.499607 0.500099 0 0 -0.234513 0.0614402 -0.0554763 -0.032711 0 0 7.79705 0 0 
314 1 314 0.499599 0.540126 0 0 -0.203312 0.0667253 -0.043774 -0.0558576 0 0 8.5799 0 0 
315 1 315 0.499573 0.580152 0 0 -0.186907 0.0704758 -0.0373101 -0.0928805 0 0 8.94128 0 0 
316 1 316 0.499528 0.620178 0 0 -0.169527 0.0849389 -0.0271026 -0.119954 0 0 9.37987 0 0 
317 1 317 0.499476 0.660207 0 0 -0.165491 0.110597 -0.0175851 -0.112189 0 0 9.27129 0 0 
318 1 318 0.49943 0.700236 0 0 -0.199927 0.0855666 -0.0366466 -0.0899514 0 0 9.90632 0 0 
319 1 319 0.499398 0.740268 0 0 -0.208922 0.119444 -0.0286705 -0.0560321 0 0 10.6819 0 0 
320 1 320 0.499379 0.780302 0 0 -0.263051 0.0806997 -0.0584491 -0.0352933 0 0 11.5179 0 0 
321 1 321 0.499367 0.820338 0 0 -0.271189 0.115456 -0.0499132 -0.0175256 0 0 11.7042 0 0 
322 1 322 0.499355 0.860374 0 0 -0.283176 0.0583206 -0.0720823 -0.0345842 0 0 13.1788 0 0 
323 1 323 0.499338 0.900401 0 0 -0.246351 0.0365124 -0.0672647 -0.0156634 0 0 14.0219 0 0 
324 1 324 0.499328 0.940422 0 0 -0.225765 0.00946077 -0.06934 0.0035123 0 0 15.2352 0 0 
325 1 325 0.499321 0.980441 0 0 -0.224657 0.00186081 -0.0714201 0.000395103 0 0 16.589 0 0 
326 1 326 0.539955 0.019992 0 0 -0.0995215 -0.150665 -0.0802102 -0.191857 0 0 0.571398 0 0 
327 1 327 0.539883 0.0599751 0 0 -0.122528 -0.149806 -0.0873117 -0.133055 0 0 1.47235 0 0 
328 1 328 0.539836 0.0999598 0 0 -0.118296 -0.170314 -0.0925341 -0.104679 0 0 1.60697 0 0 
329 1 329 0.539798 0.139941 0 0 -0.126974 -0.162573 -0.0928361 -0.107411 0 0 1.98983 0 0 