ITEM: TIMESTEP
0
ITEM: NUMBER OF ATOMS
6875
ITEM: BOX BOUNDS sm sm sm
0 4
0 2
0 0
ITEM: ATOMS id type tag x y z damage s11 s22 s33 s12 s13 s23 vx T ienergy 
1 1 1 0.0199948 0.0199967 0 0 -0.0847429 -0.0811916 -0.0531801 -0.0297861 0 0 -0.107605 0 0 
2 1 2 0.0199893 0.0599923 0 0 -0.145037 -0.0788452 -0.0717576 -0.0366305 0 0 -0.000756547 0 0 
3 1 3 0.0199878 0.0999924 0 0 -0.167076 -0.0727281 -0.0768676 -0.0364159 0 0 0.225632 0 0 
4 1 4 0.0199883 0.139993 0 0 -0.178086 -0.075211 -0.081198 -0.0278929 0 0 0.17486 0 0 
5 1 5 0.0199878 0.179996 0 0 -0.173224 -0.0679766 -0.0773154 -0.0198226 0 0 -0.0716411 0 0 
6 1 6 0.0199882 0.219997 0 0 -0.173014 -0.0735583 -0.0790378 -0.0123043 0 0 -0.111248 0 0 
7 1 7 0.0199884 0.259998 0 0 -0.163916 -0.0725952 -0.0758095 -0.00605537 0 0 -0.188277 0 0 
8 1 8 0.0199893 0.299998 0 0 -0.159188 -0.0776254 -0.0759035 -0.00769045 0 0 -0.157777 0 0 
9 1 9 0.0199884 0.339999 0 0 -0.161027 -0.0756778 -0.075868 -0.00938448 0 0 -0.0480129 0 0 
10 1 10 0.0199886 0.379998 0 0 -0.164469 -0.0822364 -0.0790743 -0.00908383 0 0 -0.139898 0 0 
11 1 11 0.0199873 0.419998 0 0 -0.163791 -0.0755098 -0.0766985 -0.0125549 0 0 -0.167314 0 0 
12 1 12 0.0199867 0.459998 0 0 -0.160551 -0.0792358 -0.0768562 -0.00809015 0 0 -0.525429 0 0 
13 1 13 0.0199855 0.499998 0 0 -0.142278 -0.0713456 -0.0684638 -0.0125112 0 0 -0.791439 0 0 
14 1 14 0.0199837 0.539996 0 0 -0.131166 -0.0745654 -0.0659344 -0.0171051 0 0 -1.02979 0 0 
15 1 15 0.0199782 0.579994 0 0 -0.121847 -0.0695933 -0.0613524 -0.0286053 0 0 -1.05856 0 0 
16 1 16 0.0199729 0.619991 0 0 -0.118666 -0.071494 -0.0609426 -0.0359053 0 0 -1.45546 0 0 
17 1 17 0.0199689 0.65999 0 0 -0.123513 -0.065695 -0.0606386 -0.0497543 0 0 -1.38084 0 0 
18 1 18 0.0199698 0.699988 0 0 -0.143262 -0.070864 -0.0686309 -0.050649 0 0 -1.52893 0 0 
19 1 19 0.0199725 0.739988 0 0 -0.156068 -0.0742504 -0.073824 -0.0526511 0 0 -1.22031 0 0 
20 1 20 0.0199771 0.779988 0 0 -0.165878 -0.0723137 -0.076349 -0.0500082 0 0 -0.851305 0 0 
21 1 21 0.0199789 0.81999 0 0 -0.184347 -0.077073 -0.0837995 -0.0473254 0 0 -0.527335 0 0 
22 1 22 0.0199827 0.859991 0 0 -0.186545 -0.0793032 -0.0852208 -0.0331749 0 0 -0.658172 0 0 
23 1 23 0.0199838 0.899995 0 0 -0.186226 -0.0526111 -0.0765542 -0.0298246 0 0 0.00123872 0 0 
24 1 24 0.0199848 0.94 0 0 -0.198331 -0.0594435 -0.0826377 0.00654089 0 0 -0.257099 0 0 
25 1 25 0.0199862 0.980008 0 0 -0.147366 -0.0436356 -0.071192 0.0186883 0 0 -0.442246 0 0 
26 1 26 0.0599911 0.0199931 0 0 -0.0867615 -0.126716 -0.0684255 -0.0418686 0 0 0.274063 0 0 
27 1 27 0.059979 0.0599834 0 0 -0.120356 -0.0893679 -0.0672204 -0.024655 0 0 0.505009 0 0 
28 1 28 0.05997 0.0999813 0 0 -0.152347 -0.0648993 -0.0696302 -0.025368 0 0 0.338099 0 0 
29 1 29 0.0599662 0.139983 0 0 -0.180712 -0.0703041 -0.0804608 -0.0168489 0 0 -0.072288 0 0 
30 1 30 0.0599648 0.179987 0 0 -0.183325 -0.0552057 -0.0764602 -0.0145708 0 0 -0.314724 0 0 
31 1 31 0.0599668 0.219991 0 0 -0.185981 -0.0725601 -0.0828814 -0.00939533 0 0 -0.237289 0 0 
32 1 32 0.0599686 0.259993 0 0 -0.170551 -0.0705907 -0.0773002 -0.00685035 0 0 -0.200615 0 0 
33 1 33 0.0599718 0.299993 0 0 -0.162412 -0.0861889 -0.0796898 -0.0117206 0 0 -0.0787966 0 0 
34 1 34 0.0599713 0.339992 0 0 -0.153951 -0.0754179 -0.0735208 -0.0217805 0 0 0.344767 0 0 
35 1 35 0.059972 0.37999 0 0 -0.160038 -0.0881269 -0.0795484 -0.016239 0 0 0.308428 0 0 
36 1 36 0.0599716 0.41999 0 0 -0.153609 -0.0685386 -0.0712007 -0.0274694 0 0 0.872859 0 0 
37 1 37 0.0599748 0.459989 0 0 -0.153867 -0.0831004 -0.0759575 -0.0100216 0 0 0.961848 0 0 
38 1 38 0.0599798 0.499987 0 0 -0.137041 -0.0766445 -0.068489 -0.0220258 0 0 1.29132 0 0 
39 1 39 0.0599867 0.539983 0 0 -0.127788 -0.0932942 -0.0708612 -0.0164034 0 0 0.978386 0 0 
40 1 40 0.059994 0.579978 0 0 -0.113193 -0.0846912 -0.0634204 -0.0368951 0 0 1.06328 0 0 
41 1 41 0.0600002 0.619973 0 0 -0.126315 -0.0963869 -0.0713814 -0.0338828 0 0 0.598841 0 0 
42 1 42 0.0600011 0.659968 0 0 -0.131151 -0.0821727 -0.0683726 -0.0543034 0 0 1.12677 0 0 
43 1 43 0.0599948 0.699966 0 0 -0.151406 -0.0822972 -0.0749107 -0.0505317 0 0 1.03311 0 0 
44 1 44 0.0599873 0.739965 0 0 -0.162562 -0.0745106 -0.075991 -0.0519313 0 0 0.922863 0 0 
45 1 45 0.0599801 0.779967 0 0 -0.175913 -0.0714279 -0.0792843 -0.0494251 0 0 1.28788 0 0 
46 1 46 0.0599734 0.819969 0 0 -0.17398 -0.0606531 -0.075205 -0.0502034 0 0 0.969006 0 0 
47 1 47 0.0599678 0.859974 0 0 -0.194002 -0.0561301 -0.0801842 -0.0385566 0 0 0.567698 0 0 
48 1 48 0.0599624 0.899981 0 0 -0.205029 -0.031505 -0.0758108 -0.046975 0 0 0.416521 0 0 
49 1 49 0.0599587 0.939995 0 0 -0.191806 0.0011995 -0.0610884 -0.0188374 0 0 -0.543774 0 0 
50 1 50 0.0599631 0.980008 0 0 -0.155392 0.00259907 -0.0489679 -0.0149367 0 0 -0.850255 0 0 
51 1 51 0.0999858 0.0199932 0 0 -0.0702763 -0.115165 -0.0594465 -0.0528793 0 0 0.549413 0 0 
52 1 52 0.0999637 0.0599835 0 0 -0.102243 -0.095476 -0.0633767 -0.0314179 0 0 0.585213 0 0 
53 1 53 0.0999488 0.099978 0 0 -0.143836 -0.0784077 -0.0712352 -0.029438 0 0 0.27077 0 0 
54 1 54 0.0999415 0.139978 0 0 -0.176917 -0.077099 -0.0814268 -0.0150675 0 0 -0.266167 0 0 
55 1 55 0.0999387 0.17998 0 0 -0.181142 -0.0596729 -0.0771958 -0.0149674 0 0 -0.488411 0 0 
56 1 56 0.0999405 0.219984 0 0 -0.185539 -0.0771859 -0.0842262 -0.00778981 0 0 -0.646173 0 0 
57 1 57 0.099945 0.259984 0 0 -0.173241 -0.0794538 -0.0810105 -0.0101787 0 0 -0.425863 0 0 
58 1 58 0.09995 0.299984 0 0 -0.163614 -0.0898802 -0.0812647 -0.013984 0 0 -0.27852 0 0 
59 1 59 0.0999506 0.339982 0 0 -0.152124 -0.0873785 -0.0767763 -0.031502 0 0 0.236235 0 0 
60 1 60 0.0999503 0.37998 0 0 -0.149365 -0.0833161 -0.0745851 -0.0227808 0 0 0.191609 0 0 
61 1 61 0.099949 0.419978 0 0 -0.143303 -0.0732916 -0.0694229 -0.0391405 0 0 0.516825 0 0 
62 1 62 0.0999498 0.459977 0 0 -0.138487 -0.0766412 -0.0689545 -0.0143918 0 0 -0.00817369 0 0 
63 1 63 0.0999541 0.499974 0 0 -0.12469 -0.0828837 -0.0665315 -0.0287045 0 0 -0.152665 0 0 
64 1 64 0.0999561 0.53997 0 0 -0.118015 -0.0909734 -0.0669834 -0.0186143 0 0 -0.690499 0 0 
65 1 65 0.0999547 0.579963 0 0 -0.109862 -0.0992633 -0.0670248 -0.0388184 0 0 -1.09742 0 0 
66 1 66 0.0999472 0.619956 0 0 -0.108991 -0.0893916 -0.0635815 -0.0411005 0 0 -1.71112 0 0 
67 1 67 0.0999409 0.65995 0 0 -0.114082 -0.0859218 -0.0641001 -0.0525463 0 0 -1.95831 0 0 
68 1 68 0.0999363 0.699946 0 0 -0.108421 -0.0658081 -0.0558356 -0.0552086 0 0 -1.32198 0 0 
69 1 69 0.099935 0.739944 0 0 -0.126946 -0.0626125 -0.0607526 -0.0549142 0 0 -0.931611 0 0 
70 1 70 0.0999343 0.779945 0 0 -0.133171 -0.0434187 -0.0565941 -0.0559765 0 0 -0.00714193 0 0 
71 1 71 0.0999337 0.819949 0 0 -0.152719 -0.0504259 -0.0651088 -0.0488408 0 0 -0.174407 0 0 
72 1 72 0.0999318 0.859955 0 0 -0.154792 -0.0146209 -0.0542985 -0.0560585 0 0 -0.0637113 0 0 
73 1 73 0.0999259 0.899966 0 0 -0.189133 -0.0259348 -0.0689309 -0.0560432 0 0 -0.777518 0 0 
74 1 74 0.0999251 0.939977 0 0 -0.17168 0.00421544 -0.0536655 -0.0350565 0 0 -1.91965 0 0 
75 1 75 0.0999352 0.97999 0 0 -0.170006 -0.00586838 -0.0563661 -0.0241441 0 0 -1.28574 0 0 
76 1 76 0.139986 0.0199943 0 0 -0.0575111 -0.0968542 -0.0494785 -0.0629192 0 0 0.782023 0 0 
77 1 77 0.13996 0.0599843 0 0 -0.0895234 -0.0981622 -0.0601576 -0.0489755 0 0 0.848006 0 0 
78 1 78 0.139937 0.0999771 0 0 -0.119355 -0.085032 -0.065517 -0.0443045 0 0 0.276567 0 0 
79 1 79 0.139922 0.139975 0 0 -0.149105 -0.0779162 -0.0727731 -0.0235925 0 0 -0.523352 0 0 
80 1 80 0.139917 0.179974 0 0 -0.168043 -0.0750083 -0.077914 -0.0185826 0 0 -0.603283 0 0 
81 1 81 0.139919 0.219975 0 0 -0.172388 -0.0820755 -0.0815752 -0.00816782 0 0 -0.752038 0 0 
82 1 82 0.139926 0.259973 0 0 -0.165584 -0.0904182 -0.0820703 -0.00947428 0 0 -0.366846 0 0 
83 1 83 0.139933 0.299971 0 0 -0.150194 -0.0855572 -0.0755753 -0.0150754 0 0 -0.0221639 0 0 
84 1 84 0.139936 0.339968 0 0 -0.142389 -0.0944025 -0.0759098 -0.0330009 0 0 0.530606 0 0 
85 1 85 0.139937 0.379964 0 0 -0.132661 -0.0768663 -0.0671597 -0.0300287 0 0 0.901556 0 0 
86 1 86 0.139937 0.419962 0 0 -0.132232 -0.0808043 -0.0682815 -0.0404798 0 0 1.43682 0 0 
87 1 87 0.139942 0.459959 0 0 -0.125017 -0.0728661 -0.0634216 -0.0199447 0 0 1.60522 0 0 
88 1 88 0.139951 0.499955 0 0 -0.126538 -0.087096 -0.0684745 -0.0242875 0 0 1.74075 0 0 
89 1 89 0.139962 0.53995 0 0 -0.115958 -0.0885308 -0.0655397 -0.0208161 0 0 1.41075 0 0 
90 1 90 0.139972 0.579944 0 0 -0.118691 -0.10142 -0.0705492 -0.031295 0 0 0.700822 0 0 
91 1 91 0.139978 0.619937 0 0 -0.116521 -0.100305 -0.0694974 -0.0443109 0 0 0.66251 0 0 
92 1 92 0.139975 0.659931 0 0 -0.131661 -0.093328 -0.0721158 -0.0525716 0 0 0.732455 0 0 
93 1 93 0.139965 0.699927 0 0 -0.142749 -0.0927035 -0.0754752 -0.0553549 0 0 1.08883 0 0 
94 1 94 0.139953 0.739924 0 0 -0.145298 -0.0758825 -0.0708974 -0.0593415 0 0 1.6895 0 0 
95 1 95 0.139941 0.779925 0 0 -0.153433 -0.0544739 -0.0666422 -0.0589295 0 0 2.02573 0 0 
96 1 96 0.139929 0.819929 0 0 -0.167091 -0.0526523 -0.0704354 -0.0577868 0 0 1.48354 0 0 
97 1 97 0.139918 0.859935 0 0 -0.172625 -0.022446 -0.0625214 -0.0659618 0 0 0.926124 0 0 
98 1 98 0.139905 0.899945 0 0 -0.174589 -0.0299085 -0.0655385 -0.071054 0 0 -0.324539 0 0 
99 1 99 0.139901 0.939954 0 0 -0.175877 -0.0112531 -0.0599822 -0.0374641 0 0 -1.76943 0 0 
100 1 100 0.139908 0.979967 0 0 -0.19447 -0.00774981 -0.0648202 -0.0313701 0 0 -1.38199 0 0 
101 1 101 0.179982 0.0199949 0 0 -0.0415946 -0.0830366 -0.0399331 -0.0691279 0 0 0.527353 0 0 
102 1 102 0.17995 0.0599845 0 0 -0.0670659 -0.0970422 -0.0525941 -0.0632579 0 0 0.604377 0 0 
103 1 103 0.179923 0.099976 0 0 -0.0951814 -0.0869598 -0.0583842 -0.0573072 0 0 0.226282 0 0 
104 1 104 0.179905 0.13997 0 0 -0.128251 -0.0879265 -0.0692969 -0.0384255 0 0 -0.54833 0 0 
105 1 105 0.179896 0.179966 0 0 -0.152244 -0.0917989 -0.0782325 -0.0266388 0 0 -0.789576 0 0 
106 1 106 0.179898 0.219964 0 0 -0.157937 -0.09294 -0.0804211 -0.0128149 0 0 -0.990972 0 0 
107 1 107 0.179905 0.25996 0 0 -0.156737 -0.0949643 -0.0806868 -0.0115522 0 0 -0.438065 0 0 
108 1 108 0.179914 0.299957 0 0 -0.148469 -0.0965675 -0.0785538 -0.0162588 0 0 0.0388023 0 0 
109 1 109 0.179919 0.339952 0 0 -0.130071 -0.0878063 -0.0698446 -0.0337206 0 0 0.552249 0 0 
110 1 110 0.17992 0.379948 0 0 -0.121573 -0.0855976 -0.0664056 -0.0369212 0 0 0.983412 0 0 
111 1 111 0.179919 0.419944 0 0 -0.111072 -0.0738525 -0.0592651 -0.0424519 0 0 1.10755 0 0 
112 1 112 0.179922 0.459941 0 0 -0.104596 -0.0759096 -0.0578484 -0.0262712 0 0 0.821141 0 0 
113 1 113 0.179928 0.499937 0 0 -0.0982768 -0.0667529 -0.0528868 -0.0292026 0 0 0.415999 0 0 
114 1 114 0.179933 0.539932 0 0 -0.101191 -0.0842346 -0.0594254 -0.025209 0 0 -0.29654 0 0 
115 1 115 0.179933 0.579926 0 0 -0.095812 -0.0758438 -0.0550105 -0.0404201 0 0 -1.02006 0 0 
116 1 116 0.179926 0.619921 0 0 -0.102069 -0.093999 -0.0628418 -0.0443606 0 0 -1.77874 0 0 
117 1 117 0.179917 0.659914 0 0 -0.0838426 -0.0705129 -0.0494636 -0.058398 0 0 -1.74603 0 0 
118 1 118 0.179909 0.699909 0 0 -0.089046 -0.0650274 -0.0493769 -0.0514758 0 0 -1.39163 0 0 
119 1 119 0.179904 0.739906 0 0 -0.0981622 -0.0594103 -0.0504974 -0.058799 0 0 -0.33767 0 0 
120 1 120 0.179898 0.779906 0 0 -0.0991144 -0.0333308 -0.0424426 -0.0537987 0 0 0.521013 0 0 
121 1 121 0.179892 0.819909 0 0 -0.122019 -0.0369079 -0.0509299 -0.0591041 0 0 0.425034 0 0 
122 1 122 0.179883 0.859915 0 0 -0.132513 -0.0112724 -0.0460709 -0.0695567 0 0 0.049126 0 0 
123 1 123 0.179875 0.899922 0 0 -0.154754 -0.0330905 -0.0601973 -0.0612612 0 0 -1.51126 0 0 
124 1 124 0.179871 0.939932 0 0 -0.162858 0.00483957 -0.0506536 -0.0463671 0 0 -2.24387 0 0 
125 1 125 0.179875 0.979945 0 0 -0.205844 -0.017234 -0.0715174 -0.0267065 0 0 -2.21058 0 0 
126 1 126 0.219984 0.0199946 0 0 -0.0412874 -0.0837112 -0.0400521 -0.0716295 0 0 0.445658 0 0 
127 1 127 0.219952 0.0599838 0 0 -0.0600491 -0.100505 -0.0514505 -0.0737768 0 0 0.586394 0 0 
128 1 128 0.219919 0.099973 0 0 -0.0757029 -0.0958248 -0.0549749 -0.0686383 0 0 0.177853 0 0 
129 1 129 0.219895 0.139964 0 0 -0.0963114 -0.0957525 -0.0615614 -0.0515116 0 0 -0.43014 0 0 
130 1 130 0.219883 0.179956 0 0 -0.118834 -0.100587 -0.0703338 -0.0350972 0 0 -0.483785 0 0 
131 1 131 0.219884 0.21995 0 0 -0.123133 -0.0949505 -0.069899 -0.0149992 0 0 -0.681905 0 0 
132 1 132 0.219892 0.259944 0 0 -0.121385 -0.0881912 -0.0671692 -0.0161651 0 0 -0.14064 0 0 
133 1 133 0.219902 0.299939 0 0 -0.123614 -0.0964201 -0.0705295 -0.0163706 0 0 0.208119 0 0 
134 1 134 0.219909 0.339933 0 0 -0.105682 -0.0784648 -0.0590251 -0.035074 0 0 0.864562 0 0 
135 1 135 0.219911 0.379928 0 0 -0.10118 -0.0864133 -0.0601299 -0.0406831 0 0 1.49219 0 0 
136 1 136 0.219913 0.419922 0 0 -0.0879094 -0.0716588 -0.0511387 -0.0451476 0 0 1.87764 0 0 
137 1 137 0.219918 0.459917 0 0 -0.0969995 -0.0782139 -0.0561569 -0.0330417 0 0 2.07976 0 0 
138 1 138 0.219928 0.499912 0 0 -0.107561 -0.0747217 -0.0584256 -0.0350573 0 0 2.10419 0 0 
139 1 139 0.21994 0.539909 0 0 -0.114463 -0.0767778 -0.0612951 -0.0267708 0 0 1.43469 0 0 
140 1 140 0.219951 0.579905 0 0 -0.118224 -0.0851074 -0.0651735 -0.0423143 0 0 0.926086 0 0 
141 1 141 0.219956 0.6199 0 0 -0.119515 -0.0774092 -0.0631197 -0.0469207 0 0 0.618511 0 0 
142 1 142 0.219952 0.659897 0 0 -0.143153 -0.102598 -0.0787786 -0.058279 0 0 0.828634 0 0 
143 1 143 0.21994 0.699892 0 0 -0.133715 -0.0730072 -0.0662597 -0.0539372 0 0 1.3634 0 0 
144 1 144 0.219924 0.739892 0 0 -0.146317 -0.0778543 -0.0718559 -0.0601176 0 0 2.2053 0 0 
145 1 145 0.219907 0.779891 0 0 -0.154399 -0.0631309 -0.0697245 -0.0519827 0 0 2.26067 0 0 
146 1 146 0.219891 0.819894 0 0 -0.160003 -0.0544399 -0.0687309 -0.0549309 0 0 1.84556 0 0 
147 1 147 0.219873 0.859899 0 0 -0.164493 -0.0387808 -0.065149 -0.0597472 0 0 1.10068 0 0 
148 1 148 0.219857 0.899906 0 0 -0.17816 -0.0380773 -0.0693028 -0.049241 0 0 -0.936534 0 0 
149 1 149 0.219847 0.939915 0 0 -0.183655 -0.00940375 -0.0618908 -0.0403155 0 0 -1.71835 0 0 
150 1 150 0.219845 0.979929 0 0 -0.206802 -0.0101216 -0.0695441 -0.0182064 0 0 -2.58601 0 0 
151 1 151 0.259982 0.0199942 0 0 -0.0368168 -0.0888712 -0.0402765 -0.0716732 0 0 0.0528605 0 0 
152 1 152 0.259947 0.0599823 0 0 -0.0384038 -0.0961394 -0.0431093 -0.0801339 0 0 0.036937 0 0 
153 1 153 0.259914 0.0999695 0 0 -0.0552062 -0.107292 -0.0520758 -0.0765125 0 0 0.0610035 0 0 
154 1 154 0.259888 0.139957 0 0 -0.0657569 -0.10324 -0.0541601 -0.0588712 0 0 -0.258092 0 0 
155 1 155 0.259874 0.179946 0 0 -0.080989 -0.107325 -0.060355 -0.0427011 0 0 -0.309668 0 0 
156 1 156 0.259872 0.219936 0 0 -0.0904837 -0.096962 -0.0600703 -0.0182129 0 0 -0.553642 0 0 
157 1 157 0.259879 0.259928 0 0 -0.0988272 -0.094028 -0.0618029 -0.0213422 0 0 0.0905268 0 0 
158 1 158 0.259889 0.299921 0 0 -0.10047 -0.0903451 -0.061153 -0.0168898 0 0 0.357477 0 0 
159 1 159 0.259897 0.339914 0 0 -0.0883318 -0.0774418 -0.0531268 -0.0325503 0 0 0.86596 0 0 
160 1 160 0.2599 0.379908 0 0 -0.0843792 -0.0836129 -0.0538423 -0.0397262 0 0 1.3171 0 0 
161 1 161 0.259901 0.419901 0 0 -0.0797371 -0.0820277 -0.0518456 -0.0443995 0 0 1.29808 0 0 
162 1 162 0.259903 0.459894 0 0 -0.0782649 -0.0741515 -0.0488523 -0.0402081 0 0 1.12543 0 0 
163 1 163 0.259907 0.499889 0 0 -0.0853347 -0.071475 -0.050263 -0.041615 0 0 0.616827 0 0 
164 1 164 0.259911 0.539885 0 0 -0.0875451 -0.0528144 -0.0449832 -0.03761 0 0 -0.20781 0 0 
165 1 165 0.25991 0.579883 0 0 -0.106164 -0.0688367 -0.0560894 -0.0497623 0 0 -0.91985 0 0 
166 1 166 0.259903 0.619881 0 0 -0.0875944 -0.0461151 -0.0428478 -0.0509723 0 0 -1.47954 0 0 
167 1 167 0.259893 0.65988 0 0 -0.0828023 -0.0505123 -0.0427184 -0.0643739 0 0 -1.37879 0 0 
168 1 168 0.259883 0.699878 0 0 -0.0904148 -0.0504092 -0.0451244 -0.0510635 0 0 -1.30546 0 0 
169 1 169 0.259875 0.739878 0 0 -0.0874154 -0.0303699 -0.0377385 -0.0624451 0 0 -0.0347746 0 0 
170 1 170 0.259864 0.77988 0 0 -0.108619 -0.0396451 -0.0475096 -0.0519982 0 0 0.384962 0 0 
171 1 171 0.259853 0.819883 0 0 -0.1277 -0.0301286 -0.0505717 -0.0521893 0 0 0.157843 0 0 
172 1 172 0.259839 0.859889 0 0 -0.1439 -0.0241484 -0.0538533 -0.0544929 0 0 -0.0171072 0 0 
173 1 173 0.259825 0.899896 0 0 -0.16421 -0.0280357 -0.0616086 -0.0381556 0 0 -1.60091 0 0 
174 1 174 0.259815 0.939906 0 0 -0.180267 -0.0093556 -0.0607884 -0.0366252 0 0 -2.10549 0 0 
175 1 175 0.259811 0.979919 0 0 -0.193526 -0.0115154 -0.0657301 -0.00821533 0 0 -3.43706 0 0 
176 1 176 0.299985 0.0199934 0 0 -0.0489681 -0.104689 -0.0492451 -0.0696059 0 0 0.124411 0 0 
177 1 177 0.299953 0.0599798 0 0 -0.0416183 -0.106333 -0.0474112 -0.0793156 0 0 0.122105 0 0 
178 1 178 0.299918 0.0999648 0 0 -0.0392823 -0.11961 -0.0509188 -0.0803238 0 0 0.268296 0 0 
179 1 179 0.29989 0.139949 0 0 -0.036317 -0.110894 -0.0471722 -0.061896 0 0 0.0561525 0 0 
180 1 180 0.299873 0.179934 0 0 -0.04862 -0.116108 -0.0527907 -0.0493209 0 0 0.0519032 0 0 
181 1 181 0.29987 0.21992 0 0 -0.057469 -0.101291 -0.0508723 -0.0240445 0 0 -0.177403 0 0 
182 1 182 0.299875 0.25991 0 0 -0.0629279 -0.0882566 -0.0484403 -0.0236151 0 0 0.197796 0 0 
183 1 183 0.299884 0.299901 0 0 -0.0667473 -0.0789057 -0.0466676 -0.0160298 0 0 0.417328 0 0 
184 1 184 0.299892 0.339894 0 0 -0.0661519 -0.0690823 -0.0433284 -0.0282492 0 0 0.948458 0 0 
185 1 185 0.299897 0.379887 0 0 -0.0683056 -0.0843954 -0.048932 -0.0346555 0 0 1.38515 0 0 
186 1 186 0.2999 0.419878 0 0 -0.0654519 -0.0822708 -0.0473404 -0.0401186 0 0 1.63932 0 0 
187 1 187 0.299903 0.45987 0 0 -0.0794982 -0.0849763 -0.0527188 -0.0383753 0 0 1.94389 0 0 
188 1 188 0.299909 0.499863 0 0 -0.104249 -0.0865569 -0.0611666 -0.0409611 0 0 1.85376 0 0 
189 1 189 0.299916 0.539859 0 0 -0.120947 -0.0710173 -0.0615326 -0.0375681 0 0 1.302 0 0 
190 1 190 0.299924 0.579858 0 0 -0.135539 -0.0666517 -0.0648087 -0.0506813 0 0 0.912303 0 0 
191 1 191 0.299929 0.619858 0 0 -0.147551 -0.0632467 -0.0675683 -0.0482122 0 0 0.677101 0 0 
192 1 192 0.299925 0.65986 0 0 -0.152776 -0.0613439 -0.0686326 -0.0691147 0 0 1.47328 0 0 
193 1 193 0.299911 0.699862 0 0 -0.158143 -0.0590335 -0.069612 -0.058249 0 0 1.74213 0 0 
194 1 194 0.299892 0.739865 0 0 -0.173322 -0.0640785 -0.0760992 -0.0646858 0 0 2.2301 0 0 
195 1 195 0.29987 0.779869 0 0 -0.170389 -0.0437113 -0.0686239 -0.0565074 0 0 2.25692 0 0 
196 1 196 0.299849 0.819876 0 0 -0.185597 -0.0516011 -0.0760286 -0.053583 0 0 1.62167 0 0 
197 1 197 0.299826 0.859882 0 0 -0.190898 -0.035431 -0.0725474 -0.0546628 0 0 0.919585 0 0 
198 1 198 0.299806 0.899892 0 0 -0.18991 -0.0291931 -0.0702246 -0.0389742 0 0 -0.847383 0 0 
199 1 199 0.29979 0.939902 0 0 -0.186462 -0.0241147 -0.067507 -0.0366376 0 0 -1.69861 0 0 
200 1 200 0.299784 0.979913 0 0 -0.176712 -0.00507751 -0.0582703 -0.00307283 0 0 -3.58042 0 0 
201 1 201 0.339983 0.0199926 0 0 -0.0464358 -0.114101 -0.0514511 -0.067305 0 0 -0.131491 0 0 
202 1 202 0.33995 0.0599776 0 0 -0.0300985 -0.110588 -0.0450823 -0.074272 0 0 -0.504401 0 0 
203 1 203 0.339919 0.0999604 0 0 -0.0279442 -0.131175 -0.0509924 -0.0771362 0 0 0.00538453 0 0 
204 1 204 0.339893 0.139942 0 0 -0.0165366 -0.122602 -0.0445843 -0.0596894 0 0 0.153221 0 0 
205 1 205 0.339876 0.179923 0 0 -0.0157292 -0.122134 -0.0441775 -0.0496498 0 0 0.12849 0 0 
206 1 206 0.339869 0.219906 0 0 -0.0223666 -0.103341 -0.0402779 -0.0266618 0 0 0.112418 0 0 
207 1 207 0.339872 0.259893 0 0 -0.0346508 -0.0829889 -0.0376878 -0.0232051 0 0 0.332439 0 0 
208 1 208 0.339878 0.299884 0 0 -0.0481417 -0.0760174 -0.0397764 -0.0170977 0 0 0.356835 0 0 
209 1 209 0.339885 0.339876 0 0 -0.0567263 -0.069299 -0.0403763 -0.0274021 0 0 0.635904 0 0 
210 1 210 0.33989 0.379869 0 0 -0.063342 -0.0828243 -0.0468336 -0.0291813 0 0 0.799163 0 0 
211 1 211 0.339891 0.41986 0 0 -0.0656794 -0.0873488 -0.0490372 -0.0374527 0 0 0.957699 0 0 
212 1 212 0.339891 0.459851 0 0 -0.073103 -0.0901255 -0.0523132 -0.0390572 0 0 0.6717 0 0 
213 1 213 0.339889 0.499843 0 0 -0.0799399 -0.0838993 -0.0525133 -0.0444398 0 0 0.0872702 0 0 
214 1 214 0.339887 0.539838 0 0 -0.0883173 -0.0613369 -0.0479609 -0.0427837 0 0 -0.511294 0 0 
215 1 215 0.339881 0.579836 0 0 -0.0978407 -0.0460809 -0.0461215 -0.0544347 0 0 -0.883419 0 0 
216 1 216 0.339872 0.619837 0 0 -0.0920931 -0.0220675 -0.0365815 -0.0527201 0 0 -1.38415 0 0 
217 1 217 0.339861 0.659841 0 0 -0.0902473 -0.0178054 -0.0346221 -0.0671159 0 0 -1.19423 0 0 
218 1 218 0.33985 0.699846 0 0 -0.0764411 0.00710598 -0.0222113 -0.0600514 0 0 -0.882648 0 0 
219 1 219 0.339838 0.739853 0 0 -0.0942173 -0.00670572 -0.0323351 -0.0690375 0 0 -0.0897252 0 0 
220 1 220 0.339823 0.77986 0 0 -0.115578 -0.00052874 -0.0372014 -0.0570378 0 0 -0.057393 0 0 
221 1 221 0.339807 0.819869 0 0 -0.138526 -0.00806525 -0.0469721 -0.0582442 0 0 -0.199922 0 0 
222 1 222 0.339788 0.859879 0 0 -0.161565 -0.0177398 -0.0574698 -0.0532108 0 0 -0.238928 0 0 
223 1 223 0.339772 0.899888 0 0 -0.171145 -0.0150217 -0.059666 -0.0354796 0 0 -1.57836 0 0 
224 1 224 0.339759 0.939899 0 0 -0.175821 -0.0245451 -0.0642322 -0.0359368 0 0 -2.04345 0 0 
225 1 225 0.339754 0.979909 0 0 -0.166316 -0.00373583 -0.0545041 0.000216881 0 0 -3.70773 0 0 
226 1 226 0.379986 0.0199918 0 0 -0.0590818 -0.129666 -0.0604956 -0.0633481 0 0 0.0868373 0 0 
227 1 227 0.379958 0.0599753 0 0 -0.0390558 -0.121508 -0.0514545 -0.0653254 0 0 -0.216583 0 0 
228 1 228 0.379928 0.0999565 0 0 -0.0199925 -0.140374 -0.0513923 -0.0680048 0 0 0.119561 0 0 
229 1 229 0.379903 0.139935 0 0 0.00147693 -0.131262 -0.0415857 -0.0529398 0 0 0.25966 0 0 
230 1 230 0.379885 0.179914 0 0 0.000937331 -0.131662 -0.0418899 -0.0451187 0 0 0.234727 0 0 
231 1 231 0.379877 0.219895 0 0 -0.0051001 -0.110377 -0.0370019 -0.0281372 0 0 0.274568 0 0 
232 1 232 0.379876 0.259879 0 0 -0.0202647 -0.0908396 -0.0355981 -0.02362 0 0 0.26708 0 0 
233 1 233 0.379879 0.299868 0 0 -0.0364284 -0.0750205 -0.0357071 -0.0180945 0 0 0.249705 0 0 
234 1 234 0.379884 0.339859 0 0 -0.0530786 -0.075238 -0.0411162 -0.0232934 0 0 0.565969 0 0 
235 1 235 0.379889 0.379851 0 0 -0.054718 -0.0750899 -0.0415909 -0.0208062 0 0 0.641897 0 0 
236 1 236 0.379892 0.419842 0 0 -0.0673165 -0.0923803 -0.0511751 -0.034908 0 0 1.00622 0 0 
237 1 237 0.379892 0.459832 0 0 -0.0851704 -0.101887 -0.0599497 -0.0338487 0 0 1.04208 0 0 
238 1 238 0.379892 0.499823 0 0 -0.103961 -0.0982546 -0.0648144 -0.0408334 0 0 1.09369 0 0 
239 1 239 0.379893 0.539817 0 0 -0.124544 -0.0851097 -0.0671983 -0.0371482 0 0 0.792388 0 0 
240 1 240 0.379895 0.579815 0 0 -0.133153 -0.0634466 -0.0630134 -0.0436099 0 0 0.701862 0 0 
241 1 241 0.379897 0.619817 0 0 -0.143247 -0.0407415 -0.0589741 -0.0457731 0 0 0.9781 0 0 
242 1 242 0.379891 0.659823 0 0 -0.162162 -0.0350764 -0.0632214 -0.062813 0 0 1.72631 0 0 
243 1 243 0.379875 0.699831 0 0 -0.173827 -0.025658 -0.0639417 -0.0588822 0 0 1.9341 0 0 
244 1 244 0.379853 0.739841 0 0 -0.182197 -0.0246778 -0.0663094 -0.0748 0 0 2.25428 0 0 
245 1 245 0.379826 0.779851 0 0 -0.185091 -0.0165481 -0.0646305 -0.0658553 0 0 1.94596 0 0 
246 1 246 0.379799 0.819863 0 0 -0.19597 -0.0206648 -0.0694397 -0.0642184 0 0 1.14938 0 0 
247 1 247 0.379772 0.859874 0 0 -0.190971 -0.019824 -0.0675743 -0.0613493 0 0 0.649839 0 0 
248 1 248 0.379751 0.899885 0 0 -0.179927 -0.0192923 -0.0638586 -0.0373624 0 0 -0.963933 0 0 
249 1 249 0.379737 0.939895 0 0 -0.174131 -0.0263395 -0.0642702 -0.0356151 0 0 -1.63152 0 0 
250 1 250 0.379731 0.979905 0 0 -0.155237 0.0016832 -0.0492154 -0.00147148 0 0 -3.14518 0 0 
251 1 251 0.419985 0.0199918 0 0 -0.0517849 -0.128615 -0.0578179 -0.0578701 0 0 -0.140278 0 0 
252 1 252 0.419957 0.0599746 0 0 -0.0279694 -0.1226 -0.0482483 -0.0531772 0 0 -0.532227 0 0 
253 1 253 0.419933 0.0999549 0 0 -0.0149711 -0.142796 -0.0505581 -0.0545848 0 0 -0.12004 0 0 
254 1 254 0.419912 0.139932 0 0 0.00218861 -0.144662 -0.0456553 -0.0421725 0 0 0.153931 0 0 
255 1 255 0.419895 0.179909 0 0 0.0121771 -0.139412 -0.0407727 -0.0382867 0 0 0.289617 0 0 
256 1 256 0.419884 0.219887 0 0 0.00911901 -0.118617 -0.0350869 -0.0280615 0 0 0.394825 0 0 
257 1 257 0.419879 0.259869 0 0 -0.0107163 -0.103774 -0.0366864 -0.0237231 0 0 0.26254 0 0 
258 1 258 0.419878 0.299856 0 0 -0.0248646 -0.0774659 -0.0327881 -0.0191416 0 0 0.143411 0 0 
259 1 259 0.419879 0.339846 0 0 -0.0467928 -0.078898 -0.0402772 -0.0224569 0 0 0.294948 0 0 
260 1 260 0.419882 0.379838 0 0 -0.0609426 -0.0809133 -0.0454566 -0.0171651 0 0 0.0116188 0 0 
261 1 261 0.419883 0.419829 0 0 -0.0740868 -0.0959876 -0.0545053 -0.0346951 0 0 0.254982 0 0 
262 1 262 0.41988 0.459819 0 0 -0.0701938 -0.0947797 -0.0528685 -0.0294896 0 0 -0.270504 0 0 
263 1 263 0.419875 0.49981 0 0 -0.0632689 -0.0822604 -0.0466353 -0.0431673 0 0 -0.633133 0 0 
264 1 264 0.419865 0.539803 0 0 -0.0694343 -0.0604098 -0.0416043 -0.0428328 0 0 -1.01849 0 0 
265 1 265 0.419853 0.579801 0 0 -0.0776562 -0.0355178 -0.0362607 -0.0437667 0 0 -1.29225 0 0 
266 1 266 0.41984 0.619804 0 0 -0.0701455 -0.000799754 -0.0227304 -0.0431035 0 0 -1.29446 0 0 
267 1 267 0.419826 0.65981 0 0 -0.0588967 0.0224224 -0.0116818 -0.0539129 0 0 -1.05771 0 0 
268 1 268 0.419812 0.699819 0 0 -0.0577575 0.0407583 -0.00544009 -0.0545214 0 0 -0.933401 0 0 
269 1 269 0.419795 0.739831 0 0 -0.0815021 0.0323967 -0.0157262 -0.0680985 0 0 -0.72077 0 0 
270 1 270 0.419775 0.779843 0 0 -0.101717 0.0345308 -0.0215241 -0.066721 0 0 -0.634768 0 0 
271 1 271 0.419755 0.819856 0 0 -0.128928 0.0210001 -0.0345831 -0.0667341 0 0 -0.783192 0 0 
272 1 272 0.419734 0.859868 0 0 -0.150615 0.00134033 -0.0478471 -0.0585758 0 0 -0.766624 0 0 
273 1 273 0.419719 0.89988 0 0 -0.150812 0.00323161 -0.0473026 -0.0384343 0 0 -1.62647 0 0 
274 1 274 0.419708 0.939891 0 0 -0.159295 -0.0185975 -0.0570322 -0.0339071 0 0 -1.73943 0 0 
275 1 275 0.419704 0.979901 0 0 -0.150688 0.00406082 -0.0469958 -0.00119873 0 0 -2.72635 0 0 
276 1 276 0.459988 0.019992 0 0 -0.0560298 -0.126289 -0.058435 -0.0530792 0 0 0.00256187 0 0 
277 1 277 0.459966 0.0599745 0 0 -0.0414509 -0.134817 -0.0564891 -0.0425407 0 0 -0.206423 0 0 
278 1 278 0.459945 0.0999546 0 0 -0.0120296 -0.139283 -0.0484893 -0.0432897 0 0 -0.0883555 0 0 
279 1 279 0.459925 0.139931 0 0 0.00565192 -0.150924 -0.0465543 -0.0328715 0 0 0.124905 0 0 
280 1 280 0.45991 0.179907 0 0 0.0135435 -0.145439 -0.0422672 -0.0310537 0 0 0.551283 0 0 
281 1 281 0.459897 0.219884 0 0 0.00871851 -0.132139 -0.0395496 -0.025981 0 0 0.690046 0 0 
282 1 282 0.459887 0.259864 0 0 -0.00865551 -0.11781 -0.0405254 -0.0222161 0 0 0.518821 0 0 
283 1 283 0.459882 0.299848 0 0 -0.0273782 -0.0941859 -0.0389535 -0.0178546 0 0 0.428649 0 0 
284 1 284 0.45988 0.339836 0 0 -0.0532771 -0.0941978 -0.0472608 -0.0207766 0 0 0.496145 0 0 
285 1 285 0.459881 0.379825 0 0 -0.0658714 -0.0870881 -0.0490167 -0.01343 0 0 0.12684 0 0 
286 1 286 0.459883 0.419816 0 0 -0.0773709 -0.0959236 -0.0555367 -0.0273846 0 0 0.490054 0 0 
287 1 287 0.459882 0.459806 0 0 -0.0864924 -0.0965017 -0.0586502 -0.0206125 0 0 0.187475 0 0 
288 1 288 0.459879 0.499798 0 0 -0.106373 -0.101558 -0.0666511 -0.0340599 0 0 0.287606 0 0 
289 1 289 0.459874 0.539791 0 0 -0.107903 -0.0761556 -0.0589904 -0.0304206 0 0 0.28037 0 0 
290 1 290 0.45987 0.57979 0 0 -0.114652 -0.0506176 -0.0529638 -0.0340934 0 0 0.383692 0 0 
291 1 291 0.459865 0.619793 0 0 -0.138435 -0.0283137 -0.0534416 -0.0359909 0 0 0.8247 0 0 
292 1 292 0.459856 0.659801 0 0 -0.162767 -0.0229805 -0.0595346 -0.0468688 0 0 1.43838 0 0 
293 1 293 0.459836 0.699811 0 0 -0.174876 -0.0099032 -0.0592243 -0.0558019 0 0 1.87274 0 0 
294 1 294 0.459809 0.739824 0 0 -0.181706 -0.00823274 -0.0608759 -0.0686655 0 0 1.63696 0 0 
295 1 295 0.459778 0.779836 0 0 -0.183537 -0.00564342 -0.0606371 -0.0703215 0 0 1.23804 0 0 
296 1 296 0.459747 0.81985 0 0 -0.183603 0.00100727 -0.0585238 -0.0700589 0 0 0.480685 0 0 
297 1 297 0.459719 0.859863 0 0 -0.179862 -0.0111658 -0.061235 -0.0588 0 0 -0.112611 0 0 
298 1 298 0.4597 0.899875 0 0 -0.166928 0.00212021 -0.0528262 -0.0371285 0 0 -1.04243 0 0 
299 1 299 0.459687 0.939887 0 0 -0.16821 -0.0135197 -0.0582609 -0.0307421 0 0 -1.15238 0 0 
300 1 300 0.459682 0.979898 0 0 -0.152673 0.00378729 -0.0477188 0.000499824 0 0 -1.86591 0 0 
301 1 301 0.499987 0.0199924 0 0 -0.0398398 -0.113896 -0.0492701 -0.0475489 0 0 -0.202541 0 0 
302 1 302 0.499966 0.0599755 0 0 -0.0269984 -0.127643 -0.0495553 -0.03465 0 0 -0.448881 0 0 
303 1 303 0.49995 0.0999557 0 0 -0.0125567 -0.137347 -0.0480389 -0.0306718 0 0 -0.249464 0 0 
304 1 304 0.499936 0.139933 0 0 0.00268125 -0.148604 -0.0467634 -0.0242384 0 0 0.131912 0 0 
305 1 305 0.499922 0.179909 0 0 0.0111018 -0.148599 -0.0440637 -0.0246825 0 0 0.716625 0 0 
306 1 306 0.499907 0.219885 0 0 0.0108473 -0.138674 -0.0409625 -0.0236537 0 0 0.966742 0 0 
307 1 307 0.499894 0.259863 0 0 -0.00414734 -0.128978 -0.0426591 -0.0225957 0 0 0.921839 0 0 
308 1 308 0.499884 0.299845 0 0 -0.0215329 -0.109972 -0.0421381 -0.0187433 0 0 0.742548 0 0 
309 1 309 0.499878 0.33983 0 0 -0.0457744 -0.107361 -0.0490726 -0.0195015 0 0 0.534476 0 0 
310 1 310 0.499875 0.379818 0 0 -0.0586802 -0.0896925 -0.0475427 -0.0106545 0 0 -0.0930317 0 0 
311 1 311 0.499874 0.419808 0 0 -0.0713072 -0.094165 -0.0530265 -0.0237002 0 0 -0.1273 0 0 
312 1 312 0.499869 0.459799 0 0 -0.0621667 -0.0812256 -0.0459518 -0.0195494 0 0 -0.941699 0 0 
313 1 313 0.499862 0.499792 0 0 -0.0510788 -0.0649954 -0.0371967 -0.0379036 0 0 -1.12119 0 0 
314 1 314 0.499848 0.539787 0 0 -0.0488443 -0.0448817 -0.0300282 -0.0338044 0 0 -1.56226 0 0 
315 1 315 0.499831 0.579786 0 0 -0.0505918 -0.0164354 -0.0214679 -0.0415422 0 0 -1.53211 0 0 
316 1 316 0.49981 0.619789 0 0 -0.0466976 0.0183975 -0.00905861 -0.0389408 0 0 -1.46917 0 0 
317 1 317 0.499791 0.659797 0 0 -0.0402496 0.0366456 -0.00114573 -0.0409416 0 0 -1.72914 0 0 
318 1 318 0.499772 0.699807 0 0 -0.0442301 0.0524966 0.00265648 -0.0533161 0 0 -1.37529 0 0 
319 1 319 0.499751 0.739819 0 0 -0.0684518 0.0452855 -0.00741305 -0.0607063 0 0 -1.60305 0 0 
320 1 320 0.499728 0.779831 0 0 -0.0926225 0.0342522 -0.0186991 -0.0684995 0 0 -1.34956 0 0 
321 1 321 0.499703 0.819845 0 0 -0.113007 0.0318656 -0.0259942 -0.0654395 0 0 -1.31241 0 0 
322 1 322 0.499682 0.859858 0 0 -0.135355 0.0107938 -0.0399189 -0.052742 0 0 -1.40987 0 0 