ITEM: TIMESTEP
0
ITEM: NUMBER OF ATOMS
7127
ITEM: BOX BOUNDS sm sm sm
0 4
0 2
0 0
ITEM: ATOMS id type tag x y z vx 
0 1 0 0 0 0 0 
1 1 1 0 0.04 0 0 
2 1 2 0 0.08 0 0 
3 1 3 0 0.12 0 0 
4 1 4 0 0.16 0 0 
5 1 5 0 0.2 0 0 
6 1 6 0 0.24 0 0 
7 1 7 0 0.28 0 0 
8 1 8 0 0.32 0 0 
9 1 9 0 0.36 0 0 
10 1 10 0 0.4 0 0 
11 1 11 0 0.44 0 0 
12 1 12 0 0.48 0 0 
13 1 13 0 0.52 0 0 
14 1 14 0 0.56 0 0 
15 1 15 0 0.6 0 0 
16 1 16 0 0.64 0 0 
17 1 17 0 0.68 0 0 
18 1 18 0 0.72 0 0 
19 1 19 0 0.76 0 0 
20 1 20 0 0.8 0 0 
21 1 21 0 0.84 0 0 
22 1 22 0 0.88 0 0 
23 1 23 0 0.92 0 0 
24 1 24 0 0.96 0 0 
25 1 25 0 1 0 0 
26 1 26 0.04 0 0 0 
27 1 27 0.0399955 0.0399944 0 0.427629 
28 1 28 0.039994 0.0799934 0 0.351736 
29 1 29 0.0399887 0.119991 0 0.0668103 
30 1 30 0.0399828 0.159988 0 0.0107891 
31 1 31 0.0399793 0.199982 0 0.0167632 
32 1 32 0.0399752 0.239978 0 -0.00470801 
33 1 33 0.0399731 0.279975 0 -0.120318 
34 1 34 0.0399701 0.319974 0 -0.292478 
35 1 35 0.0399687 0.359974 0 -0.317654 
36 1 36 0.0399654 0.399977 0 -0.310574 
37 1 37 0.0399662 0.439978 0 -0.175877 
38 1 38 0.0399612 0.479983 0 -0.0439488 
39 1 39 0.0399609 0.519985 0 -0.0100195 
40 1 40 0.0399555 0.559989 0 0.0306864 
41 1 41 0.0399537 0.599992 0 -0.0410767 
42 1 42 0.0399493 0.639997 0 -0.11866 
43 1 43 0.0399502 0.68 0 -0.129192 
44 1 44 0.0399455 0.720008 0 -0.0513731 
45 1 45 0.039947 0.760014 0 0.138036 
46 1 46 0.0399402 0.800026 0 0.334697 
47 1 47 0.0399419 0.840034 0 0.543025 
48 1 48 0.0399328 0.88005 0 0.617481 
49 1 49 0.0399277 0.920063 0 0.529573 
50 1 50 0.0399203 0.960085 0 0.539494 
51 1 51 0.0398434 1.00016 0 0.552665 
52 1 52 0.08 0 0 0 
53 1 53 0.0799943 0.0399927 0 0.584445 
54 1 54 0.0799871 0.0799848 0 0.493495 
55 1 55 0.0799783 0.119978 0 0.159306 
56 1 56 0.0799701 0.159973 0 0.109442 
57 1 57 0.0799637 0.199966 0 0.0980797 
58 1 58 0.0799561 0.239961 0 0.0855221 
59 1 59 0.0799485 0.279957 0 -0.0341096 
60 1 60 0.0799413 0.319957 0 -0.27597 
61 1 61 0.0799363 0.359958 0 -0.379016 
62 1 62 0.079931 0.399963 0 -0.444473 
63 1 63 0.0799292 0.439967 0 -0.281362 
64 1 64 0.0799225 0.479973 0 -0.0510485 
65 1 65 0.0799177 0.519978 0 0.062508 
66 1 66 0.0799107 0.559984 0 0.129947 
67 1 67 0.079904 0.599992 0 -0.0497186 
68 1 68 0.0798991 0.64 0 -0.204429 
69 1 69 0.0798922 0.680012 0 -0.295056 
70 1 70 0.0798883 0.720023 0 -0.187227 
71 1 71 0.0798823 0.760039 0 0.109222 
72 1 72 0.0798782 0.800053 0 0.526324 
73 1 73 0.0798687 0.840076 0 0.874978 
74 1 74 0.0798597 0.880095 0 0.983199 
75 1 75 0.0798474 0.920127 0 0.997333 
76 1 76 0.0798069 0.960177 0 1.04779 
77 1 77 0.0797557 1.00021 0 1.11868 
78 1 78 0.12 0 0 0 
79 1 79 0.119993 0.0399879 0 0.477573 
80 1 80 0.119982 0.0799758 0 0.463877 
81 1 81 0.11997 0.119966 0 0.223948 
82 1 82 0.11996 0.159959 0 0.213104 
83 1 83 0.11995 0.199952 0 0.25164 
84 1 84 0.119938 0.239949 0 0.311881 
85 1 85 0.119926 0.279947 0 0.24694 
86 1 86 0.119914 0.319949 0 -0.0403212 
87 1 87 0.119906 0.359951 0 -0.264287 
88 1 88 0.119896 0.399957 0 -0.385288 
89 1 89 0.119892 0.439962 0 -0.212521 
90 1 90 0.119882 0.47997 0 0.0635996 
91 1 91 0.119876 0.519977 0 0.226298 
92 1 92 0.119864 0.559988 0 0.250957 
93 1 93 0.119853 0.599998 0 -0.0627149 
94 1 94 0.119843 0.640012 0 -0.321307 
95 1 95 0.119836 0.680028 0 -0.508293 
96 1 96 0.119827 0.720046 0 -0.393559 
97 1 97 0.119818 0.760065 0 -0.0115243 
98 1 98 0.119808 0.800088 0 0.557723 
99 1 99 0.119795 0.840112 0 1.08395 
100 1 100 0.119779 0.880144 0 1.25843 
101 1 101 0.119752 0.920182 0 1.34909 
102 1 102 0.119714 0.960221 0 1.503 
103 1 103 0.119672 1.00027 0 1.63457 
104 1 104 0.16 0 0 0 
105 1 105 0.159991 0.0399833 0 0.244175 
106 1 106 0.159979 0.0799695 0 0.335151 
107 1 107 0.159965 0.119959 0 0.259162 
108 1 108 0.15995 0.15995 0 0.334845 
109 1 109 0.159937 0.199944 0 0.499887 
110 1 110 0.15992 0.239943 0 0.660388 
111 1 111 0.159904 0.279942 0 0.616375 
112 1 112 0.159887 0.319945 0 0.28432 
113 1 113 0.159874 0.359949 0 -0.0138819 
114 1 114 0.159862 0.399956 0 -0.155445 
115 1 115 0.159854 0.439963 0 0.012601 
116 1 116 0.159842 0.479972 0 0.306456 
117 1 117 0.15983 0.519982 0 0.492275 
118 1 118 0.159814 0.559995 0 0.435253 
119 1 119 0.159801 0.600009 0 0.0302326 
120 1 120 0.159785 0.640026 0 -0.380843 
121 1 121 0.159771 0.680046 0 -0.73056 
122 1 122 0.159759 0.720067 0 -0.652371 
123 1 123 0.159746 0.760092 0 -0.234795 
124 1 124 0.159732 0.800118 0 0.435357 
125 1 125 0.159714 0.840149 0 1.08166 
126 1 126 0.159691 0.880183 0 1.4252 
127 1 127 0.159662 0.920223 0 1.63353 
128 1 128 0.159626 0.960264 0 1.88132 
129 1 129 0.159585 1.0003 0 2.09789 
130 1 130 0.2 0 0 0 
131 1 131 0.199988 0.0399806 0 0.00646748 
132 1 132 0.199973 0.0799666 0 0.117265 
133 1 133 0.199958 0.119955 0 0.221342 
134 1 134 0.199941 0.159946 0 0.457793 
135 1 135 0.199923 0.199941 0 0.749242 
136 1 136 0.199903 0.239941 0 0.918881 
137 1 137 0.199881 0.279941 0 0.868831 
138 1 138 0.19986 0.319945 0 0.588766 
139 1 139 0.199843 0.35995 0 0.299593 
140 1 140 0.199827 0.399958 0 0.171627 
141 1 141 0.199814 0.439967 0 0.306113 
142 1 142 0.1998 0.479978 0 0.581299 
143 1 143 0.199785 0.51999 0 0.774884 
144 1 144 0.199765 0.560006 0 0.6303 
145 1 145 0.199745 0.600023 0 0.21259 
146 1 146 0.199724 0.640045 0 -0.269716 
147 1 147 0.199709 0.680067 0 -0.733332 
148 1 148 0.199692 0.720092 0 -0.704259 
149 1 149 0.199674 0.760119 0 -0.34896 
150 1 150 0.199655 0.800149 0 0.353813 
151 1 151 0.199632 0.840182 0 1.02024 
152 1 152 0.199606 0.880218 0 1.46238 
153 1 153 0.199573 0.920258 0 1.82157 
154 1 154 0.199538 0.960298 0 2.22998 
155 1 155 0.199505 1.00034 0 2.5778 
156 1 156 0.24 0 0 0 
157 1 157 0.239984 0.0399812 0 -0.144293 
158 1 158 0.239969 0.079967 0 -0.0187307 
159 1 159 0.239952 0.119955 0 0.284119 
160 1 160 0.23993 0.159946 0 0.622668 
161 1 161 0.239909 0.199943 0 0.889769 
162 1 162 0.239883 0.239943 0 1.01208 
163 1 163 0.239858 0.279943 0 1.00413 
164 1 164 0.239831 0.319949 0 0.818503 
165 1 165 0.239809 0.359953 0 0.525973 
166 1 166 0.239789 0.399962 0 0.428312 
167 1 167 0.239773 0.439973 0 0.552992 
168 1 168 0.239754 0.479987 0 0.805148 
169 1 169 0.239734 0.520002 0 1.00958 
170 1 170 0.23971 0.560021 0 0.812118 
171 1 171 0.23969 0.60004 0 0.403721 
172 1 172 0.239662 0.640064 0 -0.0859637 
173 1 173 0.23964 0.680088 0 -0.526852 
174 1 174 0.239616 0.720115 0 -0.500352 
175 1 175 0.239596 0.760145 0 -0.249787 
176 1 176 0.239573 0.800176 0 0.374877 
177 1 177 0.239545 0.840211 0 1.01281 
178 1 178 0.239517 0.880247 0 1.56005 
179 1 179 0.239484 0.920287 0 2.03409 
180 1 180 0.239453 0.960326 0 2.58077 
181 1 181 0.23942 1.00037 0 3.04414 
182 1 182 0.28 0 0 0 
183 1 183 0.279983 0.0399838 0 -0.201638 
184 1 184 0.279963 0.0799699 0 -0.0221378 
185 1 185 0.279944 0.119958 0 0.416386 
186 1 186 0.279919 0.15995 0 0.697665 
187 1 187 0.279892 0.199947 0 0.867173 
188 1 188 0.27986 0.239946 0 0.999578 
189 1 189 0.279831 0.279948 0 1.00986 
190 1 190 0.279801 0.319954 0 0.909422 
191 1 191 0.279774 0.359959 0 0.727233 
192 1 192 0.279749 0.399969 0 0.701498 
193 1 193 0.279728 0.439982 0 0.783858 
194 1 194 0.279706 0.479997 0 0.91892 
195 1 195 0.279685 0.520016 0 1.04759 
196 1 196 0.279657 0.560038 0 0.876934 
197 1 197 0.279628 0.600061 0 0.560208 
198 1 198 0.279597 0.640087 0 0.110508 
199 1 199 0.279576 0.680114 0 -0.243562 
200 1 200 0.279548 0.720143 0 -0.223469 
201 1 201 0.279522 0.760173 0 -0.0445567 
202 1 202 0.279494 0.800205 0 0.513944 
203 1 203 0.279464 0.84024 0 1.06334 
204 1 204 0.279432 0.880276 0 1.72042 
205 1 205 0.279396 0.920316 0 2.31885 
206 1 206 0.279367 0.960355 0 2.9227 
207 1 207 0.279338 1.00039 0 3.43511 
208 1 208 0.32 0 0 0 
209 1 209 0.31998 0.0399865 0 -0.213572 
210 1 210 0.319959 0.0799738 0 0.0224292 
211 1 211 0.319936 0.119963 0 0.520224 
212 1 212 0.319904 0.159957 0 0.740315 
213 1 213 0.319872 0.199954 0 0.848308 
214 1 214 0.319837 0.239955 0 0.94331 
215 1 215 0.319803 0.279958 0 0.907908 
216 1 216 0.319768 0.319964 0 0.887803 
217 1 217 0.319736 0.359971 0 0.858621 
218 1 218 0.319707 0.399983 0 0.865909 
219 1 219 0.319683 0.439997 0 0.883766 
220 1 220 0.319657 0.480016 0 0.930428 
221 1 221 0.31963 0.520036 0 0.922265 
222 1 222 0.3196 0.560059 0 0.729577 
223 1 223 0.319571 0.600083 0 0.526009 
224 1 224 0.319535 0.64011 0 0.22888 
225 1 225 0.319504 0.680136 0 0.0861276 
226 1 226 0.31947 0.720167 0 0.141967 
227 1 227 0.319444 0.760197 0 0.280891 
228 1 228 0.319412 0.800231 0 0.761737 
229 1 229 0.319377 0.840266 0 1.18767 
230 1 230 0.319345 0.880303 0 1.90971 
231 1 231 0.319309 0.920343 0 2.59828 
232 1 232 0.319281 0.960382 0 3.18821 
233 1 233 0.319249 1.00042 0 3.67172 
234 1 234 0.36 0 0 0 
235 1 235 0.35998 0.0399886 0 -0.105688 
236 1 236 0.359955 0.0799782 0 0.172157 
237 1 237 0.359927 0.11997 0 0.656263 
238 1 238 0.359889 0.159966 0 0.834496 
239 1 239 0.359851 0.199965 0 0.844504 
240 1 240 0.35981 0.239967 0 0.828344 
241 1 241 0.359773 0.279972 0 0.816539 
242 1 242 0.359734 0.319978 0 0.936968 
243 1 243 0.359699 0.359988 0 1.03096 
244 1 244 0.359666 0.400001 0 1.02714 
245 1 245 0.359636 0.440016 0 0.899499 
246 1 246 0.359607 0.480036 0 0.761176 
247 1 247 0.35958 0.520059 0 0.584623 
248 1 248 0.359546 0.560083 0 0.363791 
249 1 249 0.359509 0.60011 0 0.237073 
250 1 250 0.359471 0.640137 0 0.102566 
251 1 251 0.359441 0.680165 0 0.195416 
252 1 252 0.359405 0.720195 0 0.346404 
253 1 253 0.359373 0.760226 0 0.53139 
254 1 254 0.359336 0.80026 0 0.967351 
255 1 255 0.359301 0.840296 0 1.34552 
256 1 256 0.359263 0.880334 0 2.16299 
257 1 257 0.359223 0.920373 0 2.9072 
258 1 258 0.359195 0.960414 0 3.45444 
259 1 259 0.359165 1.00045 0 3.88228 
260 1 260 0.4 0 0 0 
261 1 261 0.399978 0.0399911 0 0.00784685 
262 1 262 0.39995 0.0799829 0 0.31402 
263 1 263 0.399916 0.119977 0 0.761775 
264 1 264 0.399873 0.159976 0 0.894107 
265 1 265 0.399829 0.199977 0 0.844082 
266 1 266 0.399783 0.239982 0 0.778485 
267 1 267 0.399742 0.27999 0 0.803191 
268 1 268 0.3997 0.319999 0 0.983103 
269 1 269 0.399662 0.360011 0 1.10247 
270 1 270 0.399625 0.400025 0 1.09625 
271 1 271 0.399592 0.440043 0 0.863944 
272 1 272 0.399559 0.480064 0 0.505353 
273 1 273 0.399526 0.520087 0 0.141605 
274 1 274 0.399489 0.560112 0 -0.105518 
275 1 275 0.399454 0.600137 0 -0.147764 
276 1 276 0.399411 0.640164 0 -0.105546 
277 1 277 0.39937 0.680191 0 0.157895 
278 1 278 0.399328 0.720222 0 0.403737 
279 1 279 0.399296 0.760253 0 0.669529 
280 1 280 0.399255 0.800289 0 1.0208 
281 1 281 0.399216 0.840327 0 1.36199 
282 1 282 0.399178 0.880366 0 2.241 
283 1 283 0.39914 0.920406 0 2.97489 
284 1 284 0.399108 0.960447 0 3.44779 
285 1 285 0.399073 1.00049 0 3.79342 
286 1 286 0.44 0 0 0 
287 1 287 0.439978 0.0399925 0 0.130233 
288 1 288 0.439944 0.079987 0 0.445564 
289 1 289 0.439904 0.119984 0 0.82715 
290 1 290 0.439856 0.159986 0 0.930576 
291 1 291 0.439806 0.199991 0 0.877621 
292 1 292 0.439756 0.239999 0 0.780943 
293 1 293 0.439712 0.280009 0 0.78159 
294 1 294 0.439666 0.320021 0 0.975207 
295 1 295 0.439626 0.360035 0 1.13839 
296 1 296 0.439586 0.400051 0 1.13458 
297 1 297 0.439549 0.44007 0 0.77949 
298 1 298 0.439512 0.480092 0 0.228593 
299 1 299 0.439478 0.520115 0 -0.279037 
300 1 300 0.439436 0.560141 0 -0.591144 
301 1 301 0.439392 0.600168 0 -0.582109 
302 1 302 0.439346 0.640197 0 -0.363679 
303 1 303 0.439308 0.680226 0 0.00124293 
304 1 304 0.439266 0.720257 0 0.301535 
305 1 305 0.439226 0.76029 0 0.638338 
306 1 306 0.439182 0.800326 0 0.926758 
307 1 307 0.439145 0.840364 0 1.29271 
308 1 308 0.439101 0.880404 0 2.2137 
309 1 309 0.439058 0.920443 0 2.9696 
310 1 310 0.439024 0.960485 0 3.46941 
311 1 311 0.438987 1.00053 0 3.76615 
312 1 312 0.48 0 0 0 
313 1 313 0.479973 0.0399933 0 0.233529 
314 1 314 0.479937 0.0799904 0 0.541723 
315 1 315 0.479892 0.119991 0 0.82861 
316 1 316 0.479838 0.159996 0 0.908369 
317 1 317 0.479783 0.200004 0 0.857082 
318 1 318 0.47973 0.240014 0 0.731051 
319 1 319 0.479682 0.280028 0 0.734291 
320 1 320 0.479633 0.320043 0 0.937478 
321 1 321 0.479591 0.36006 0 1.09432 
322 1 322 0.479547 0.400078 0 1.04898 
323 1 323 0.479507 0.440098 0 0.617867 
324 1 324 0.479465 0.480121 0 -0.00424615 
325 1 325 0.479423 0.520146 0 -0.541402 
326 1 326 0.479377 0.560172 0 -0.882911 
327 1 327 0.479335 0.6002 0 -0.87367 
328 1 328 0.479285 0.640228 0 -0.548875 
329 1 329 0.479234 0.680257 0 -0.137326 
330 1 330 0.479187 0.720289 0 0.173856 
331 1 331 0.479149 0.760324 0 0.504357 
332 1 332 0.479103 0.800362 0 0.711086 
333 1 333 0.479062 0.840401 0 1.1097 
334 1 334 0.479018 0.880444 0 1.98202 
335 1 335 0.478979 0.920484 0 2.70314 
336 1 336 0.478938 0.960525 0 3.22783 
337 1 337 0.478893 1.00057 0 3.46842 
338 1 338 0.52 0 0 0 
339 1 339 0.519969 0.0399938 0 0.223383 
340 1 340 0.519927 0.079993 0 0.474198 
341 1 341 0.519877 0.119997 0 0.646818 
342 1 342 0.519821 0.160004 0 0.743153 
343 1 343 0.519762 0.200014 0 0.781561 
344 1 344 0.519704 0.240028 0 0.670021 
345 1 345 0.519652 0.280044 0 0.64149 
346 1 346 0.5196 0.320062 0 0.794397 
347 1 347 0.519555 0.360081 0 0.923992 
348 1 348 0.519509 0.4001 0 0.894533 
349 1 349 0.519464 0.440122 0 0.501824 
350 1 350 0.519417 0.480145 0 -0.120972 
351 1 351 0.519373 0.520171 0 -0.631328 
352 1 352 0.519321 0.5602 0 -0.897156 
353 1 353 0.519268 0.600231 0 -0.8529 
354 1 354 0.519216 0.640263 0 -0.515443 
355 1 355 0.519172 0.680297 0 -0.156129 
356 1 356 0.519126 0.72033 0 0.0857413 
357 1 357 0.51908 0.760367 0 0.318179 
358 1 358 0.519032 0.800405 0 0.447709 
359 1 359 0.518993 0.840445 0 0.874575 
360 1 360 0.518945 0.880488 0 1.62175 
361 1 361 0.518902 0.920528 0 2.29611 
362 1 362 0.518857 0.960571 0 2.90122 
363 1 363 0.51881 1.00061 0 3.12628 
364 1 364 0.56 0 0 0 
365 1 365 0.55996 0.039995 0 0.158956 
366 1 366 0.559915 0.0799957 0 0.315726 
367 1 367 0.559862 0.120002 0 0.386501 
368 1 368 0.559802 0.16001 0 0.484715 
369 1 369 0.55974 0.200023 0 0.570676 
370 1 370 0.559678 0.240038 0 0.506669 
371 1 371 0.559621 0.280057 0 0.48869 
372 1 372 0.559567 0.320077 0 0.625371 
373 1 373 0.559518 0.360098 0 0.747484 
374 1 374 0.559468 0.40012 0 0.730251 
375 1 375 0.55942 0.440144 0 0.465707 
376 1 376 0.559367 0.480169 0 -0.0386283 
377 1 377 0.559314 0.520197 0 -0.501315 
378 1 378 0.559257 0.560227 0 -0.718893 
379 1 379 0.559206 0.600259 0 -0.654124 
380 1 380 0.559151 0.640292 0 -0.355358 
381 1 381 0.559094 0.680327 0 -0.100047 
382 1 382 0.559044 0.720363 0 0.0580849 
383 1 383 0.559001 0.760402 0 0.197983 
384 1 384 0.558954 0.800443 0 0.285624 
385 1 385 0.558908 0.840486 0 0.689059 
386 1 386 0.558863 0.880532 0 1.24917 
387 1 387 0.558824 0.920573 0 1.83488 
388 1 388 0.558773 0.960615 0 2.44318 
389 1 389 0.558721 1.00066 0 2.62713 
390 1 390 0.6 0 0 0 
391 1 391 0.599954 0.0399963 0 0.00754642 
392 1 392 0.599902 0.0799986 0 -0.00559829 
393 1 393 0.599846 0.120006 0 -0.0316065 
394 1 394 0.599784 0.160016 0 0.10611 
395 1 395 0.599718 0.20003 0 0.275048 
396 1 396 0.599651 0.240046 0 0.328408 
397 1 397 0.59959 0.280066 0 0.358624 
398 1 398 0.599532 0.320087 0 0.470257 
399 1 399 0.59948 0.36011 0 0.579146 
400 1 400 0.599427 0.400133 0 0.567104 
401 1 401 0.599373 0.440158 0 0.43771 
402 1 402 0.599314 0.480185 0 0.101575 
403 1 403 0.599259 0.520215 0 -0.225061 
404 1 404 0.599197 0.560249 0 -0.337625 
405 1 405 0.599135 0.600285 0 -0.290199 
406 1 406 0.599079 0.640324 0 -0.0946632 
407 1 407 0.599031 0.680363 0 0.0403083 
408 1 408 0.598981 0.720402 0 0.0545486 
409 1 409 0.59893 0.760444 0 0.0469334 
410 1 410 0.598881 0.800486 0 0.105794 
411 1 411 0.598837 0.84053 0 0.436273 
412 1 412 0.598789 0.880576 0 0.792199 
413 1 413 0.598746 0.920618 0 1.28408 
414 1 414 0.598694 0.960661 0 1.87795 
415 1 415 0.598646 1.0007 0 2.04502 
416 1 416 0.64 0 0 0 
417 1 417 0.639945 0.0399986 0 -0.172982 
418 1 418 0.639889 0.0800024 0 -0.369761 
419 1 419 0.63983 0.120011 0 -0.497952 
420 1 420 0.639764 0.160022 0 -0.321456 
421 1 421 0.639695 0.200037 0 -0.048881 
422 1 422 0.639625 0.240053 0 0.142498 
423 1 423 0.639558 0.280074 0 0.23735 
424 1 424 0.639497 0.320096 0 0.342117 
425 1 425 0.639441 0.36012 0 0.458677 
426 1 426 0.639382 0.400145 0 0.473711 
427 1 427 0.639326 0.440173 0 0.462291 
428 1 428 0.639262 0.480202 0 0.281551 
429 1 429 0.639197 0.520235 0 0.0847497 
430 1 430 0.63913 0.56027 0 0.0236188 
431 1 431 0.639071 0.600309 0 -0.00125093 
432 1 432 0.63901 0.640348 0 0.0579291 
433 1 433 0.638949 0.680389 0 0.0748639 
434 1 434 0.638894 0.720431 0 -0.0145709 
435 1 435 0.638847 0.760476 0 -0.078237 
436 1 436 0.638796 0.800522 0 0.0258065 
437 1 437 0.638747 0.840569 0 0.303864 
438 1 438 0.638703 0.880616 0 0.504926 
439 1 439 0.638665 0.92066 0 0.819912 
440 1 440 0.638613 0.960703 0 1.27376 
441 1 441 0.638565 1.00074 0 1.41643 
442 1 442 0.68 0 0 0 
443 1 443 0.679939 0.0400011 0 -0.32776 
444 1 444 0.679876 0.0800067 0 -0.668598 
445 1 445 0.679813 0.120017 0 -0.877297 
446 1 446 0.679744 0.160029 0 -0.708342 
447 1 447 0.679672 0.200045 0 -0.3744 
448 1 448 0.679598 0.240061 0 -0.0211933 
449 1 449 0.679527 0.280081 0 0.170463 
450 1 450 0.679461 0.320103 0 0.244374 
451 1 451 0.679401 0.360127 0 0.314666 
452 1 452 0.67934 0.400153 0 0.328442 
453 1 453 0.679278 0.440182 0 0.411638 
454 1 454 0.679208 0.480214 0 0.349866 
455 1 455 0.679142 0.520249 0 0.231658 
456 1 456 0.67907 0.560288 0 0.182421 
457 1 457 0.678998 0.600332 0 0.103329 
458 1 458 0.678935 0.640377 0 0.049617 
459 1 459 0.678884 0.680423 0 -0.0464465 
460 1 460 0.678828 0.720469 0 -0.213573 
461 1 461 0.678771 0.760515 0 -0.271307 
462 1 462 0.678717 0.800561 0 -0.0973199 
463 1 463 0.678671 0.840608 0 0.125967 
464 1 464 0.678625 0.880653 0 0.236359 
465 1 465 0.678582 0.920698 0 0.382026 
466 1 466 0.678537 0.96074 0 0.699488 
467 1 467 0.678499 1.00077 0 0.863261 
468 1 468 0.72 0 0 0 
469 1 469 0.719931 0.040004 0 -0.399789 
470 1 470 0.719864 0.0800115 0 -0.900137 
471 1 471 0.719796 0.120024 0 -1.20016 
472 1 472 0.719723 0.160038 0 -0.992762 
473 1 473 0.719649 0.200054 0 -0.586833 
474 1 474 0.719572 0.240071 0 -0.145979 
475 1 475 0.719496 0.28009 0 0.0945496 
476 1 476 0.719427 0.320112 0 0.149141 
477 1 477 0.719362 0.360137 0 0.151352 
478 1 478 0.719296 0.400165 0 0.0808179 
479 1 479 0.719231 0.440195 0 0.149427 
480 1 480 0.719157 0.48023 0 0.166409 
481 1 481 0.719079 0.520269 0 0.155077 
482 1 482 0.719002 0.56031 0 0.15729 
483 1 483 0.718935 0.600354 0 0.0634326 
484 1 484 0.718866 0.640399 0 -0.10125 
485 1 485 0.718798 0.680446 0 -0.281771 
486 1 486 0.718735 0.720495 0 -0.441189 
487 1 487 0.718683 0.760543 0 -0.420616 
488 1 488 0.718628 0.800592 0 -0.136637 
489 1 489 0.718577 0.840639 0 0.0836958 
490 1 490 0.718535 0.880684 0 0.14773 
491 1 491 0.718498 0.920729 0 0.0659244 
492 1 492 0.718458 0.96077 0 0.183059 
493 1 493 0.718423 1.0008 0 0.366644 
494 1 494 0.76 0 0 0 
495 1 495 0.759926 0.0400062 0 -0.380191 
496 1 496 0.759851 0.0800166 0 -0.928892 
497 1 497 0.759778 0.120031 0 -1.30665 
498 1 498 0.759702 0.160047 0 -1.15884 
499 1 499 0.759625 0.200064 0 -0.765957 
500 1 500 0.759546 0.240081 0 -0.288565 
501 1 501 0.759468 0.280101 0 -0.0167434 
502 1 502 0.759394 0.320122 0 -0.0248661 
503 1 503 0.759323 0.360147 0 -0.156957 
504 1 504 0.759254 0.400176 0 -0.293565 
505 1 505 0.759182 0.440209 0 -0.220121 
506 1 506 0.759103 0.480245 0 -0.142631 
507 1 507 0.759025 0.520286 0 -0.0641657 
508 1 508 0.758942 0.560329 0 -0.0380036 
509 1 509 0.758861 0.600378 0 -0.134607 
510 1 510 0.758789 0.640428 0 -0.343635 
511 1 511 0.758732 0.680479 0 -0.519339 
512 1 512 0.758668 0.720529 0 -0.606178 
513 1 513 0.758605 0.760578 0 -0.495332 
514 1 514 0.758548 0.800625 0 -0.107464 
515 1 515 0.758501 0.840669 0 0.107454 
516 1 516 0.758456 0.880711 0 0.12508 
517 1 517 0.758414 0.920754 0 -0.139816 
518 1 518 0.758384 0.960793 0 -0.191978 
519 1 519 0.75836 1.00083 0 -0.000216155 
520 1 520 0.8 0 0 0 
521 1 521 0.799919 0.0400086 0 -0.276231 
522 1 522 0.799839 0.0800211 0 -0.824458 
523 1 523 0.79976 0.120037 0 -1.28241 
524 1 524 0.79968 0.160056 0 -1.23538 
525 1 525 0.799601 0.200075 0 -0.89899 
526 1 526 0.79952 0.240093 0 -0.467983 
527 1 527 0.799438 0.280114 0 -0.229125 
528 1 528 0.799361 0.320136 0 -0.282253 
529 1 529 0.799286 0.360162 0 -0.497635 
530 1 530 0.799209 0.400193 0 -0.688342 
531 1 531 0.799133 0.440228 0 -0.665837 
532 1 532 0.799049 0.480267 0 -0.555946 
533 1 533 0.79896 0.52031 0 -0.35871 
534 1 534 0.798874 0.560355 0 -0.245096 
535 1 535 0.798798 0.600403 0 -0.238845 
536 1 536 0.79872 0.640449 0 -0.409965 
537 1 537 0.798644 0.680499 0 -0.573 
538 1 538 0.798574 0.720549 0 -0.60878 
539 1 539 0.798518 0.760598 0 -0.448059 
540 1 540 0.798461 0.800646 0 -0.00571675 
541 1 541 0.798408 0.84069 0 0.173927 
542 1 542 0.798368 0.880732 0 0.116242 
543 1 543 0.798333 0.920772 0 -0.27119 
544 1 544 0.798306 0.96081 0 -0.437463 
545 1 545 0.798283 1.00084 0 -0.258168 
546 1 546 0.84 0 0 0 
547 1 547 0.839914 0.0400102 0 -0.0892578 
548 1 548 0.839825 0.0800245 0 -0.630344 
549 1 549 0.83974 0.120043 0 -1.17484 
550 1 550 0.839656 0.160063 0 -1.25443 
551 1 551 0.839575 0.200084 0 -1.03162 
552 1 552 0.839492 0.240105 0 -0.7012 
553 1 553 0.839409 0.280127 0 -0.515099 
554 1 554 0.839326 0.32015 0 -0.594328 
555 1 555 0.839244 0.360178 0 -0.856411 
556 1 556 0.839164 0.40021 0 -1.07609 
557 1 557 0.83908 0.440248 0 -1.08662 
558 1 558 0.838992 0.480289 0 -0.917148 
559 1 559 0.838904 0.520333 0 -0.570844 
560 1 560 0.838813 0.560378 0 -0.331732 
561 1 561 0.838724 0.600427 0 -0.210894 
562 1 562 0.838643 0.640477 0 -0.347238 
563 1 563 0.83858 0.680528 0 -0.476281 
564 1 564 0.83851 0.720577 0 -0.437626 
565 1 565 0.838443 0.760625 0 -0.26649 
566 1 566 0.838386 0.80067 0 0.160154 
567 1 567 0.838339 0.84071 0 0.262258 
568 1 568 0.838294 0.88075 0 0.0951468 
569 1 569 0.838253 0.920788 0 -0.342342 
570 1 570 0.838232 0.960825 0 -0.583328 
571 1 571 0.838218 1.00086 0 -0.46362 
572 1 572 0.88 0 0 0 
573 1 573 0.879906 0.0400118 0 0.0850989 
574 1 574 0.879811 0.0800274 0 -0.429807 
575 1 575 0.879719 0.120047 0 -1.05641 
576 1 576 0.87963 0.160069 0 -1.29855 
577 1 577 0.879546 0.200092 0 -1.22817 
578 1 578 0.879461 0.240115 0 -1.00898 
579 1 579 0.879374 0.280139 0 -0.853496 
580 1 580 0.879289 0.320165 0 -0.910277 
581 1 581 0.879202 0.360197 0 -1.14294 
582 1 582 0.879114 0.400232 0 -1.31365 
583 1 583 0.879025 0.440273 0 -1.2922 
584 1 584 0.878933 0.480316 0 -1.0443 
585 1 585 0.878836 0.520361 0 -0.595535 
586 1 586 0.878743 0.560406 0 -0.270034 
587 1 587 0.878662 0.600451 0 -0.030111 
588 1 588 0.878576 0.640495 0 -0.0904761 
589 1 589 0.878494 0.680542 0 -0.17142 
590 1 590 0.878418 0.72059 0 -0.0898315 
591 1 591 0.87836 0.760637 0 0.000680165 
592 1 592 0.878304 0.800682 0 0.290369 
593 1 593 0.878251 0.840723 0 0.290044 
594 1 594 0.878211 0.880763 0 0.0584162 
595 1 595 0.878177 0.9208 0 -0.326421 
596 1 596 0.878154 0.960837 0 -0.593417 
597 1 597 0.878137 1.00087 0 -0.563023 
598 1 598 0.92 0 0 0 
599 1 599 0.9199 0.0400118 0 0.185344 
600 1 600 0.919796 0.0800282 0 -0.261797 
601 1 601 0.919696 0.120049 0 -0.893236 
602 1 602 0.919603 0.160072 0 -1.27287 
603 1 603 0.919515 0.200096 0 -1.38833 
604 1 604 0.919427 0.240121 0 -1.33599 
605 1 605 0.919339 0.280149 0 -1.21229 
606 1 606 0.919248 0.320177 0 -1.16232 
607 1 607 0.919155 0.360212 0 -1.26269 
608 1 608 0.919063 0.400249 0 -1.35726 
609 1 609 0.918967 0.440293 0 -1.34383 
610 1 610 0.91887 0.480337 0 -1.09139 
611 1 611 0.918777 0.520384 0 -0.581164 
612 1 612 0.918682 0.560428 0 -0.138851 
613 1 613 0.918587 0.600473 0 0.226593 
614 1 614 0.918501 0.64052 0 0.240325 
615 1 615 0.918433 0.680566 0 0.175745 
616 1 616 0.91836 0.720612 0 0.249924 
617 1 617 0.91829 0.760656 0 0.254542 
618 1 618 0.918235 0.800698 0 0.382698 
619 1 619 0.918189 0.840737 0 0.25486 
620 1 620 0.918143 0.880775 0 -0.0558291 
621 1 621 0.918101 0.920813 0 -0.338179 
622 1 622 0.91808 0.96085 0 -0.531954 
623 1 623 0.918069 1.00089 0 -0.554298 
624 1 624 0.96 0 0 0 
625 1 625 0.95989 0.0400121 0 0.184398 
626 1 626 0.95978 0.0800281 0 -0.206284 
627 1 627 0.959672 0.120048 0 -0.801822 
628 1 628 0.959572 0.160071 0 -1.28363 
629 1 629 0.959481 0.200097 0 -1.52683 
630 1 630 0.95939 0.240125 0 -1.54304 
631 1 631 0.959299 0.280154 0 -1.42583 
632 1 632 0.959204 0.320186 0 -1.32968 
633 1 633 0.959106 0.360224 0 -1.32094 
634 1 634 0.959005 0.400265 0 -1.31353 
635 1 635 0.958905 0.440312 0 -1.2468 
636 1 636 0.958805 0.480358 0 -0.957383 
637 1 637 0.958704 0.520406 0 -0.420048 
638 1 638 0.95861 0.560451 0 0.0780811 
639 1 639 0.958526 0.600492 0 0.495025 
640 1 640 0.958437 0.640532 0 0.58447 
641 1 641 0.958348 0.680574 0 0.560028 
642 1 642 0.958271 0.720618 0 0.64598 
643 1 643 0.958211 0.760662 0 0.594789 
644 1 644 0.958156 0.800705 0 0.536759 
645 1 645 0.958104 0.840746 0 0.333968 
646 1 646 0.958063 0.880786 0 0.0187954 
647 1 647 0.958029 0.920824 0 -0.199842 
648 1 648 0.958003 0.960862 0 -0.369144 
649 1 649 0.957988 1.0009 0 -0.454529 
650 1 650 1 0 0 0 
651 1 651 0.999884 0.0400106 0 0.0764224 
652 1 652 0.999763 0.0800264 0 -0.250209 
653 1 653 0.999648 0.120046 0 -0.711778 
654 1 654 0.999544 0.160069 0 -1.20926 
655 1 655 0.999445 0.200095 0 -1.58527 
656 1 656 0.999351 0.240123 0 -1.71495 
657 1 657 0.999257 0.280155 0 -1.6117 
658 1 658 0.999157 0.320189 0 -1.42113 
659 1 659 0.999053 0.36023 0 -1.26229 
660 1 660 0.998948 0.400272 0 -1.17665 
661 1 661 0.99884 0.44032 0 -1.07472 
662 1 662 0.998736 0.480368 0 -0.784715 
663 1 663 0.998641 0.520416 0 -0.280605 
664 1 664 0.998546 0.560462 0 0.270651 
665 1 665 0.99845 0.600505 0 0.757188 
666 1 666 0.998362 0.64055 0 0.966216 
667 1 667 0.99829 0.680592 0 0.997087 
668 1 668 0.998216 0.720635 0 1.0505 
669 1 669 0.998145 0.760677 0 0.909862 
670 1 670 0.998091 0.800718 0 0.616177 
671 1 671 0.998045 0.840758 0 0.328068 
672 1 672 0.997996 0.880798 0 0.0661801 
673 1 673 0.997955 0.920837 0 -0.0314647 
674 1 674 0.997931 0.960875 0 -0.131771 
675 1 675 0.997921 1.00091 0 -0.260068 
676 1 676 1.04 0 0 0 
677 1 677 1.03987 0.0400094 0 -0.117923 
678 1 678 1.03975 0.0800234 0 -0.339508 
679 1 679 1.03962 0.120042 0 -0.621336 
680 1 680 1.03951 0.160063 0 -1.09954 
681 1 681 1.03941 0.200089 0 -1.54628 
682 1 682 1.03931 0.240118 0 -1.75463 
683 1 683 1.03921 0.280151 0 -1.71263 
684 1 684 1.03911 0.320187 0 -1.50174 
685 1 685 1.039 0.360229 0 -1.20991 
686 1 686 1.03888 0.400274 0 -1.04067 
687 1 687 1.03877 0.440323 0 -0.891951 
688 1 688 1.03867 0.480373 0 -0.565772 
689 1 689 1.03856 0.520422 0 -0.0644043 
690 1 690 1.03847 0.560469 0 0.52421 
691 1 691 1.03839 0.600512 0 1.01741 
692 1 692 1.0383 0.640552 0 1.31329 
693 1 693 1.0382 0.680592 0 1.40447 
694 1 694 1.03813 0.720635 0 1.46041 
695 1 695 1.03807 0.760678 0 1.32529 
696 1 696 1.03801 0.800721 0 0.869939 
697 1 697 1.03796 0.840765 0 0.516976 
698 1 698 1.03792 0.880806 0 0.294376 
699 1 699 1.03788 0.920846 0 0.243082 
700 1 700 1.03786 0.960884 0 0.144599 
701 1 701 1.03784 1.00092 0 -0.0394631 
702 1 702 1.08 0 0 0 
703 1 703 1.07986 0.0400074 0 -0.347301 
704 1 704 1.07973 0.08002 0 -0.485538 
705 1 705 1.0796 0.120037 0 -0.609273 
706 1 706 1.07948 0.160057 0 -1.03142 
707 1 707 1.07937 0.200081 0 -1.49206 
708 1 708 1.07927 0.240109 0 -1.73749 
709 1 709 1.07917 0.280143 0 -1.72793 
710 1 710 1.07906 0.320179 0 -1.54599 
711 1 711 1.07894 0.360221 0 -1.21243 
712 1 712 1.07882 0.400265 0 -0.96743 
713 1 713 1.07871 0.440314 0 -0.711756 
714 1 714 1.07859 0.480364 0 -0.318981 
715 1 715 1.0785 0.520414 0 0.165797 
716 1 716 1.0784 0.560461 0 0.774613 
717 1 717 1.07831 0.600509 0 1.28146 
718 1 718 1.07822 0.640557 0 1.69294 
719 1 719 1.07815 0.680602 0 1.8498 
720 1 720 1.07807 0.720645 0 1.83668 
721 1 721 1.078 0.760687 0 1.6511 
722 1 722 1.07794 0.800729 0 1.06917 
723 1 723 1.0779 0.840773 0 0.682183 
724 1 724 1.07785 0.880814 0 0.521695 
725 1 725 1.07781 0.920855 0 0.551989 
726 1 726 1.07778 0.960892 0 0.459301 
727 1 727 1.07778 1.00093 0 0.212568 
728 1 728 1.12 0 0 0 
729 1 729 1.11985 0.0400049 0 -0.539878 
730 1 730 1.11971 0.0800154 0 -0.60573 
731 1 731 1.11958 0.12003 0 -0.585077 
732 1 732 1.11946 0.160047 0 -0.924698 
733 1 733 1.11934 0.200071 0 -1.40214 
734 1 734 1.11923 0.240098 0 -1.76024 
735 1 735 1.11912 0.280131 0 -1.84315 
736 1 736 1.119 0.320167 0 -1.66918 
737 1 737 1.11888 0.360209 0 -1.24126 
738 1 738 1.11876 0.400253 0 -0.881569 
739 1 739 1.11864 0.440301 0 -0.511098 
740 1 740 1.11852 0.48035 0 -0.0457106 
741 1 741 1.11842 0.520401 0 0.414034 
742 1 742 1.11832 0.560452 0 1.00593 
743 1 743 1.11824 0.6005 0 1.49503 
744 1 744 1.11815 0.640545 0 1.95969 
745 1 745 1.11805 0.680589 0 2.18056 
746 1 746 1.11798 0.720635 0 2.16701 
747 1 747 1.11792 0.76068 0 1.94687 
748 1 748 1.11786 0.800725 0 1.24851 
749 1 749 1.11781 0.840773 0 0.857959 
750 1 750 1.11777 0.880816 0 0.798803 
751 1 751 1.11774 0.920858 0 0.899552 
752 1 752 1.11771 0.960895 0 0.754136 
753 1 753 1.1177 1.00093 0 0.423883 
754 1 754 1.16 0 0 0 
755 1 755 1.15985 0.040002 0 -0.635892 
756 1 756 1.1597 0.0800104 0 -0.669516 
757 1 757 1.15956 0.120022 0 -0.598111 
758 1 758 1.15943 0.160038 0 -0.909995 
759 1 759 1.1593 0.20006 0 -1.37781 
760 1 760 1.15919 0.240085 0 -1.77091 
761 1 761 1.15907 0.280117 0 -1.9035 
762 1 762 1.15895 0.320153 0 -1.77199 
763 1 763 1.15882 0.360192 0 -1.31556 
764 1 764 1.15869 0.400234 0 -0.820715 
765 1 765 1.15857 0.440278 0 -0.284704 
766 1 766 1.15845 0.480327 0 0.279167 
767 1 767 1.15835 0.520377 0 0.7284 
768 1 768 1.15825 0.560428 0 1.26084 
769 1 769 1.15815 0.600481 0 1.6789 
770 1 770 1.15807 0.640535 0 2.14586 
771 1 771 1.15799 0.680587 0 2.40601 
772 1 772 1.15792 0.720633 0 2.37862 
773 1 773 1.15784 0.760679 0 2.15445 
774 1 774 1.15779 0.800724 0 1.45872 
775 1 775 1.15774 0.840771 0 1.06997 
776 1 776 1.15769 0.880815 0 1.05624 
777 1 777 1.15766 0.920859 0 1.23616 