ITEM: TIMESTEP
0
ITEM: NUMBER OF ATOMS
6875
ITEM: BOX BOUNDS sm sm sm
0 4
0 2
0 0
ITEM: ATOMS id type tag x y z damage s11 s22 s33 s12 s13 s23 vx T ienergy 
1 1 1 0.019997 0.0199978 0 0 -0.0506567 -0.0522901 -0.0329857 -0.0184866 0 0 -0.140596 0 0 
2 1 2 0.0199928 0.0599948 0 0 -0.0992362 -0.0537333 -0.0490165 -0.0291025 0 0 -0.0659727 0 0 
3 1 3 0.019991 0.0999944 0 0 -0.125188 -0.0623129 -0.0600917 -0.0251278 0 0 -0.205259 0 0 
4 1 4 0.0199907 0.139993 0 0 -0.145654 -0.0773207 -0.0714712 -0.0336888 0 0 -0.250909 0 0 
5 1 5 0.0199886 0.179993 0 0 -0.171881 -0.0831491 -0.0817532 -0.0361839 0 0 -0.42271 0 0 
6 1 6 0.0199881 0.219991 0 0 -0.186441 -0.0969022 -0.090837 -0.0357781 0 0 -0.403501 0 0 
7 1 7 0.0199873 0.259991 0 0 -0.19419 -0.0957559 -0.0929547 -0.0443954 0 0 -0.0720903 0 0 
8 1 8 0.0199863 0.29999 0 0 -0.210049 -0.0983912 -0.0988868 -0.0434871 0 0 -0.0299076 0 0 
9 1 9 0.019985 0.339991 0 0 -0.223488 -0.0988213 -0.103337 -0.0425516 0 0 0.0741247 0 0 
10 1 10 0.0199836 0.379993 0 0 -0.24257 -0.094671 -0.108127 -0.0346248 0 0 0.207744 0 0 
11 1 11 0.0199812 0.419996 0 0 -0.273299 -0.108848 -0.122542 -0.0209785 0 0 0.14613 0 0 
12 1 12 0.0199801 0.459999 0 0 -0.289326 -0.117791 -0.13056 -0.00364157 0 0 -0.0941722 0 0 
13 1 13 0.0199778 0.500002 0 0 -0.312385 -0.13438 -0.143292 0.00195851 0 0 -0.061859 0 0 
14 1 14 0.0199741 0.540003 0 0 -0.332537 -0.153001 -0.155747 0.0143652 0 0 -0.974905 0 0 
15 1 15 0.0199693 0.580004 0 0 -0.343768 -0.162089 -0.162275 0.0107717 0 0 -1.41384 0 0 
16 1 16 0.019964 0.620004 0 0 -0.36245 -0.16362 -0.16877 0.0147793 0 0 -2.04454 0 0 
17 1 17 0.0199621 0.660006 0 0 -0.361555 -0.166024 -0.169256 0.0244377 0 0 -2.41188 0 0 
18 1 18 0.0199642 0.700006 0 0 -0.360593 -0.160686 -0.167232 0.0226599 0 0 -1.76472 0 0 
19 1 19 0.0199669 0.740008 0 0 -0.356535 -0.158026 -0.165073 0.0376243 0 0 -1.51064 0 0 
20 1 20 0.019972 0.780009 0 0 -0.338182 -0.15217 -0.157296 0.0398927 0 0 -0.973903 0 0 
21 1 21 0.0199746 0.820011 0 0 -0.322528 -0.142579 -0.149185 0.0480709 0 0 -0.673217 0 0 
22 1 22 0.0199781 0.860012 0 0 -0.30351 -0.126107 -0.137789 0.0549424 0 0 -0.351701 0 0 
23 1 23 0.0199784 0.900016 0 0 -0.307455 -0.134804 -0.141848 0.0628296 0 0 -0.324122 0 0 
24 1 24 0.0199789 0.940018 0 0 -0.310234 -0.112663 -0.135638 0.0747579 0 0 -0.276939 0 0 
25 1 25 0.0199719 0.980029 0 0 -0.35831 -0.103309 -0.158052 0.0850236 0 0 -0.606725 0 0 
26 1 26 0.0599949 0.0199949 0 0 -0.059916 -0.0932968 -0.0490995 -0.025876 0 0 -0.0789316 0 0 
27 1 27 0.0599855 0.0599865 0 0 -0.0922407 -0.0785245 -0.0547268 -0.0356187 0 0 0.238514 0 0 
28 1 28 0.0599786 0.0999826 0 0 -0.119205 -0.0718303 -0.0612248 -0.0253427 0 0 -0.388484 0 0 
29 1 29 0.0599749 0.139979 0 0 -0.148074 -0.0920963 -0.0769832 -0.0412278 0 0 -0.671443 0 0 
30 1 30 0.0599687 0.179977 0 0 -0.161794 -0.0797709 -0.0774347 -0.0385698 0 0 -0.708977 0 0 
31 1 31 0.0599674 0.219976 0 0 -0.179352 -0.100961 -0.0898681 -0.0274487 0 0 -0.597081 0 0 
32 1 32 0.0599647 0.259974 0 0 -0.190928 -0.0952334 -0.0917453 -0.0387061 0 0 -0.0357912 0 0 
33 1 33 0.0599611 0.299974 0 0 -0.208829 -0.0931041 -0.0968031 -0.0293526 0 0 0.106239 0 0 
34 1 34 0.0599565 0.339976 0 0 -0.237475 -0.0921697 -0.105697 -0.0352269 0 0 0.558355 0 0 
35 1 35 0.059951 0.379981 0 0 -0.26329 -0.0776928 -0.109334 -0.0276673 0 0 0.785927 0 0 
36 1 36 0.059945 0.41999 0 0 -0.290962 -0.0851134 -0.120597 -0.0233611 0 0 0.730048 0 0 
37 1 37 0.0599425 0.459997 0 0 -0.307403 -0.0950977 -0.129084 -0.000476119 0 0 0.263143 0 0 
38 1 38 0.0599413 0.500005 0 0 -0.319846 -0.116262 -0.139874 -0.00716288 0 0 1.01495 0 0 
39 1 39 0.0599415 0.540008 0 0 -0.329524 -0.138314 -0.150064 0.0163533 0 0 0.485741 0 0 
40 1 40 0.0599445 0.580011 0 0 -0.343559 -0.154762 -0.159855 0.00493568 0 0 1.74847 0 0 
41 1 41 0.0599441 0.620012 0 0 -0.363084 -0.157173 -0.166903 0.0122903 0 0 2.22897 0 0 
42 1 42 0.059945 0.660015 0 0 -0.370134 -0.156187 -0.168851 0.0270551 0 0 1.73665 0 0 
43 1 43 0.0599438 0.700018 0 0 -0.375042 -0.16021 -0.171721 0.0164712 0 0 2.06779 0 0 
44 1 44 0.059941 0.740022 0 0 -0.355475 -0.136564 -0.157839 0.0389723 0 0 0.854828 0 0 
45 1 45 0.0599421 0.780025 0 0 -0.347396 -0.150159 -0.15961 0.0332045 0 0 0.914641 0 0 
46 1 46 0.0599418 0.820029 0 0 -0.32964 -0.126747 -0.146384 0.0392878 0 0 0.503001 0 0 
47 1 47 0.0599428 0.860034 0 0 -0.315004 -0.116864 -0.138517 0.0395599 0 0 0.289304 0 0 
48 1 48 0.0599419 0.90004 0 0 -0.306545 -0.107512 -0.132787 0.0368823 0 0 0.0476768 0 0 
49 1 49 0.0599363 0.940051 0 0 -0.315337 -0.0490154 -0.116839 0.0380116 0 0 -0.289956 0 0 
50 1 50 0.0599219 0.98007 0 0 -0.295374 -0.00474197 -0.0962274 0.0121009 0 0 -1.07824 0 0 
51 1 51 0.0999914 0.0199935 0 0 -0.0639121 -0.11082 -0.0560118 -0.0349225 0 0 -0.21368 0 0 
52 1 52 0.0999751 0.0599818 0 0 -0.0887933 -0.109003 -0.0634022 -0.0443597 0 0 -0.160976 0 0 
53 1 53 0.0999634 0.0999729 0 0 -0.117496 -0.0949783 -0.0681037 -0.0292296 0 0 -0.901396 0 0 
54 1 54 0.0999568 0.139968 0 0 -0.146485 -0.093962 -0.0770757 -0.0422257 0 0 -1.03729 0 0 
55 1 55 0.0999487 0.179965 0 0 -0.153675 -0.0804249 -0.0750431 -0.0359923 0 0 -0.924473 0 0 
56 1 56 0.0999448 0.219964 0 0 -0.175662 -0.0885403 -0.0847014 -0.0247137 0 0 -0.89266 0 0 
57 1 57 0.0999393 0.259964 0 0 -0.198875 -0.0885562 -0.0921566 -0.0354284 0 0 -0.0161834 0 0 
58 1 58 0.0999325 0.299966 0 0 -0.215424 -0.0854332 -0.0964626 -0.0199757 0 0 0.315961 0 0 
59 1 59 0.099923 0.33997 0 0 -0.248642 -0.0866953 -0.107529 -0.0378228 0 0 0.855678 0 0 
60 1 60 0.0999115 0.379977 0 0 -0.276192 -0.0733684 -0.112091 -0.0218031 0 0 0.741148 0 0 
61 1 61 0.0999023 0.419986 0 0 -0.298159 -0.0817025 -0.121816 -0.0266706 0 0 0.569698 0 0 
62 1 62 0.0998965 0.459996 0 0 -0.312493 -0.0809892 -0.126191 -0.00479182 0 0 -0.274322 0 0 
63 1 63 0.0998938 0.500005 0 0 -0.320046 -0.108939 -0.13759 -0.0150922 0 0 0.0275215 0 0 
64 1 64 0.0998893 0.540011 0 0 -0.316263 -0.116932 -0.13894 0.00331466 0 0 -0.999725 0 0 
65 1 65 0.0998844 0.580016 0 0 -0.315945 -0.126834 -0.142016 -0.0113911 0 0 -0.90444 0 0 
66 1 66 0.0998743 0.620019 0 0 -0.315523 -0.13469 -0.144405 -0.00501212 0 0 -1.46656 0 0 
67 1 67 0.099871 0.660022 0 0 -0.313692 -0.115783 -0.137744 0.0105616 0 0 -2.38108 0 0 
68 1 68 0.0998718 0.700027 0 0 -0.328151 -0.134469 -0.14839 0.00151549 0 0 -1.51377 0 0 
69 1 69 0.0998763 0.740031 0 0 -0.314078 -0.112079 -0.136681 0.0279923 0 0 -2.14172 0 0 
70 1 70 0.0998851 0.780036 0 0 -0.31577 -0.124505 -0.141215 0.0167806 0 0 -1.11332 0 0 
71 1 71 0.0998905 0.820041 0 0 -0.305337 -0.110732 -0.133441 0.0240215 0 0 -0.989565 0 0 
72 1 72 0.0998959 0.860046 0 0 -0.297946 -0.10032 -0.127732 0.0229987 0 0 -0.92468 0 0 
73 1 73 0.099896 0.900054 0 0 -0.314424 -0.0897879 -0.129631 0.01185 0 0 -1.0099 0 0 
74 1 74 0.0998876 0.940068 0 0 -0.297421 -0.0233682 -0.102854 -0.00920301 0 0 -1.29681 0 0 
75 1 75 0.0998752 0.980087 0 0 -0.291504 -0.0295922 -0.102957 -0.00416449 0 0 -1.61662 0 0 
76 1 76 0.139991 0.0199923 0 0 -0.0780177 -0.131885 -0.0672894 -0.0440447 0 0 0.0330761 0 0 
77 1 77 0.139972 0.0599781 0 0 -0.101385 -0.127115 -0.0732496 -0.0489649 0 0 -0.0239884 0 0 
78 1 78 0.139954 0.0999672 0 0 -0.123218 -0.114508 -0.0762123 -0.0311999 0 0 -0.848408 0 0 
79 1 79 0.139942 0.139961 0 0 -0.134496 -0.0801932 -0.0688187 -0.0316012 0 0 -0.943507 0 0 
80 1 80 0.139931 0.179959 0 0 -0.164294 -0.0944391 -0.0829462 -0.0240394 0 0 -0.905653 0 0 
81 1 81 0.139923 0.219958 0 0 -0.184031 -0.0755435 -0.0832161 -0.0160774 0 0 -0.822123 0 0 
82 1 82 0.139914 0.259961 0 0 -0.205853 -0.0809351 -0.0919491 -0.0238314 0 0 0.212135 0 0 
83 1 83 0.139905 0.299964 0 0 -0.22267 -0.079237 -0.0968018 -0.0134464 0 0 0.572155 0 0 
84 1 84 0.139891 0.339969 0 0 -0.251901 -0.0812517 -0.10683 -0.0392795 0 0 1.39935 0 0 
85 1 85 0.139875 0.379976 0 0 -0.271605 -0.0755114 -0.111308 -0.0197833 0 0 1.2959 0 0 
86 1 86 0.139863 0.419984 0 0 -0.292267 -0.0910123 -0.122913 -0.0284353 0 0 0.920308 0 0 
87 1 87 0.139856 0.459992 0 0 -0.306644 -0.0915347 -0.127697 -0.0143392 0 0 0.126028 0 0 
88 1 88 0.139856 0.5 0 0 -0.311031 -0.105359 -0.133545 -0.0192016 0 0 0.297446 0 0 
89 1 89 0.139857 0.540005 0 0 -0.321377 -0.126086 -0.143522 -0.0191226 0 0 0.468196 0 0 
90 1 90 0.139859 0.58001 0 0 -0.334775 -0.120306 -0.145968 -0.0339133 0 0 1.61025 0 0 
91 1 91 0.139858 0.620014 0 0 -0.35094 -0.15422 -0.162055 -0.0304234 0 0 2.27546 0 0 
92 1 92 0.139856 0.660018 0 0 -0.35357 -0.130377 -0.15524 -0.0253108 0 0 2.21729 0 0 
93 1 93 0.139853 0.700024 0 0 -0.362621 -0.139304 -0.161017 -0.0252681 0 0 2.04562 0 0 
94 1 94 0.139852 0.740029 0 0 -0.348396 -0.130353 -0.153572 0.00148642 0 0 0.709849 0 0 
95 1 95 0.139856 0.780035 0 0 -0.343454 -0.1183 -0.148115 -0.00873271 0 0 1.08027 0 0 
96 1 96 0.139857 0.820043 0 0 -0.329687 -0.116057 -0.142971 0.00756432 0 0 0.422114 0 0 
97 1 97 0.13986 0.86005 0 0 -0.310988 -0.0843064 -0.126773 0.00338858 0 0 0.333042 0 0 
98 1 98 0.139855 0.900062 0 0 -0.311924 -0.0746293 -0.123961 -0.00891383 0 0 -0.287621 0 0 
99 1 99 0.139844 0.940076 0 0 -0.296539 -0.0329263 -0.105648 -0.0163775 0 0 -1.13478 0 0 
100 1 100 0.139831 0.980094 0 0 -0.288344 -0.0136535 -0.0968316 -0.0117652 0 0 -1.69022 0 0 
101 1 101 0.179986 0.0199911 0 0 -0.0929973 -0.155156 -0.079549 -0.0568538 0 0 -0.150232 0 0 
102 1 102 0.179961 0.0599756 0 0 -0.107661 -0.126501 -0.0750631 -0.0546256 0 0 -0.378248 0 0 
103 1 103 0.17994 0.0999657 0 0 -0.132398 -0.116434 -0.0797766 -0.0396452 0 0 -0.786906 0 0 
104 1 104 0.179924 0.13996 0 0 -0.149898 -0.0848041 -0.0752402 -0.0347728 0 0 -0.957929 0 0 
105 1 105 0.17991 0.179958 0 0 -0.175147 -0.0969982 -0.0872501 -0.0268035 0 0 -1.09934 0 0 
106 1 106 0.179898 0.219958 0 0 -0.180747 -0.0655523 -0.0789538 -0.0198184 0 0 -0.790723 0 0 
107 1 107 0.179886 0.259961 0 0 -0.204549 -0.0790067 -0.0909082 -0.0256548 0 0 0.336295 0 0 
108 1 108 0.179874 0.299965 0 0 -0.225914 -0.0793973 -0.0978941 -0.0256652 0 0 0.803271 0 0 
109 1 109 0.179855 0.339971 0 0 -0.246866 -0.0769798 -0.103845 -0.05114 0 0 1.34651 0 0 
110 1 110 0.179836 0.379975 0 0 -0.268393 -0.100933 -0.118438 -0.0337823 0 0 0.885646 0 0 
111 1 111 0.179823 0.419981 0 0 -0.271685 -0.0928271 -0.116888 -0.0443002 0 0 0.394389 0 0 
112 1 112 0.179813 0.459985 0 0 -0.295193 -0.127595 -0.135598 -0.0329936 0 0 -0.50443 0 0 
113 1 113 0.179811 0.499988 0 0 -0.285297 -0.100113 -0.123598 -0.0344815 0 0 -0.918548 0 0 
114 1 114 0.179807 0.539992 0 0 -0.303301 -0.135993 -0.140898 -0.0431657 0 0 -1.14187 0 0 
115 1 115 0.1798 0.579995 0 0 -0.284898 -0.0994596 -0.123261 -0.0577358 0 0 -1.26056 0 0 
116 1 116 0.179791 0.62 0 0 -0.280549 -0.113412 -0.126346 -0.0504168 0 0 -1.89954 0 0 
117 1 117 0.179785 0.660004 0 0 -0.282847 -0.101994 -0.123416 -0.0576719 0 0 -1.69507 0 0 
118 1 118 0.179782 0.70001 0 0 -0.288635 -0.0861487 -0.120189 -0.0396965 0 0 -1.62322 0 0 
119 1 119 0.179789 0.740018 0 0 -0.300512 -0.0981584 -0.127855 -0.0194091 0 0 -1.70881 0 0 
120 1 120 0.179797 0.780026 0 0 -0.299525 -0.0732602 -0.119547 -0.0212083 0 0 -0.518255 0 0 
121 1 121 0.179804 0.820037 0 0 -0.306746 -0.0832186 -0.12506 0.0011226 0 0 -0.924231 0 0 
122 1 122 0.17981 0.860049 0 0 -0.304808 -0.05848 -0.116494 -0.0113941 0 0 -0.383032 0 0 
123 1 123 0.179807 0.900063 0 0 -0.306147 -0.051002 -0.114523 -0.0155586 0 0 -0.977531 0 0 
124 1 124 0.179797 0.94008 0 0 -0.292662 -0.0224634 -0.101053 -0.0274787 0 0 -1.66317 0 0 
125 1 125 0.179784 0.980099 0 0 -0.29663 -0.0212041 -0.10192 -0.0140496 0 0 -2.32485 0 0 
126 1 126 0.219984 0.0199906 0 0 -0.103805 -0.167365 -0.0869352 -0.0681862 0 0 0.0744303 0 0 
127 1 127 0.219956 0.0599746 0 0 -0.119842 -0.131374 -0.0805307 -0.0555698 0 0 0.00594138 0 0 
128 1 128 0.21993 0.0999646 0 0 -0.139567 -0.119108 -0.0829287 -0.0536989 0 0 -0.584851 0 0 
129 1 129 0.219908 0.139958 0 0 -0.157071 -0.0995303 -0.0822639 -0.0473755 0 0 -0.897136 0 0 
130 1 130 0.21989 0.179955 0 0 -0.168599 -0.0872699 -0.0820273 -0.041697 0 0 -0.844142 0 0 
131 1 131 0.219875 0.219956 0 0 -0.186918 -0.0764024 -0.0844128 -0.0440363 0 0 -0.453907 0 0 
132 1 132 0.21986 0.259958 0 0 -0.211724 -0.0848597 -0.0950849 -0.0463574 0 0 0.36877 0 0 
133 1 133 0.219844 0.299961 0 0 -0.230786 -0.0859547 -0.101559 -0.0526227 0 0 0.946026 0 0 
134 1 134 0.219823 0.339965 0 0 -0.243092 -0.0837557 -0.104808 -0.0729177 0 0 1.40052 0 0 
135 1 135 0.219803 0.379968 0 0 -0.266683 -0.130145 -0.12727 -0.0549347 0 0 0.789345 0 0 
136 1 136 0.21979 0.419968 0 0 -0.25419 -0.104402 -0.114992 -0.0646728 0 0 0.43717 0 0 
137 1 137 0.21978 0.459968 0 0 -0.283982 -0.153687 -0.140382 -0.0552634 0 0 -0.487821 0 0 
138 1 138 0.219778 0.499967 0 0 -0.283347 -0.122045 -0.130018 -0.0512696 0 0 -0.716416 0 0 
139 1 139 0.219778 0.539969 0 0 -0.306575 -0.134186 -0.141373 -0.0606129 0 0 0.0796698 0 0 
140 1 140 0.219777 0.579972 0 0 -0.327056 -0.136492 -0.148692 -0.0658978 0 0 1.10335 0 0 
141 1 141 0.219776 0.619976 0 0 -0.338504 -0.123397 -0.148164 -0.0581711 0 0 1.87044 0 0 
142 1 142 0.219771 0.659982 0 0 -0.366699 -0.136784 -0.161518 -0.0708159 0 0 2.87388 0 0 
143 1 143 0.219764 0.69999 0 0 -0.358016 -0.105241 -0.148596 -0.0398053 0 0 2.16642 0 0 
144 1 144 0.219764 0.740001 0 0 -0.365959 -0.105849 -0.151341 -0.0296125 0 0 1.85576 0 0 
145 1 145 0.219764 0.780013 0 0 -0.364737 -0.0794363 -0.142465 -0.0232685 0 0 2.09011 0 0 
146 1 146 0.219766 0.820028 0 0 -0.354906 -0.0754828 -0.138036 0.00099548 0 0 1.07522 0 0 
147 1 147 0.219768 0.860044 0 0 -0.341123 -0.0509644 -0.12574 -0.0145262 0 0 1.29221 0 0 
148 1 148 0.219763 0.900063 0 0 -0.331498 -0.0459314 -0.121031 -0.010779 0 0 -0.321705 0 0 
149 1 149 0.219752 0.940081 0 0 -0.302 -0.0189786 -0.102931 -0.0296176 0 0 -1.19845 0 0 
150 1 150 0.219739 0.980102 0 0 -0.293983 -0.0105224 -0.0976426 -0.0172351 0 0 -2.17242 0 0 
151 1 151 0.25998 0.0199907 0 0 -0.0916237 -0.161212 -0.0810557 -0.0832048 0 0 -0.0955791 0 0 
152 1 152 0.259945 0.0599735 0 0 -0.114704 -0.146541 -0.0837473 -0.0690994 0 0 -0.318277 0 0 
153 1 153 0.259915 0.0999611 0 0 -0.136309 -0.130103 -0.0854069 -0.0756069 0 0 -0.599772 0 0 
154 1 154 0.25989 0.139952 0 0 -0.153945 -0.116687 -0.0867612 -0.0670008 0 0 -0.649701 0 0 
155 1 155 0.259869 0.179947 0 0 -0.167179 -0.097225 -0.0847632 -0.0667228 0 0 -1.04326 0 0 
156 1 156 0.25985 0.219945 0 0 -0.18928 -0.0968557 -0.0917313 -0.0745561 0 0 -0.826918 0 0 
157 1 157 0.259832 0.259946 0 0 -0.206893 -0.0845607 -0.0934361 -0.0765769 0 0 0.16941 0 0 
158 1 158 0.259812 0.299948 0 0 -0.238476 -0.0976422 -0.107774 -0.0856426 0 0 0.707239 0 0 
159 1 159 0.25979 0.33995 0 0 -0.241777 -0.098837 -0.109221 -0.0959931 0 0 1.09543 0 0 
160 1 160 0.25977 0.37995 0 0 -0.255465 -0.135031 -0.125236 -0.0791121 0 0 0.568069 0 0 
161 1 161 0.259756 0.419948 0 0 -0.255986 -0.135859 -0.125669 -0.0805946 0 0 0.0643301 0 0 
162 1 162 0.259745 0.459945 0 0 -0.265889 -0.151695 -0.133937 -0.0758424 0 0 -0.754395 0 0 
163 1 163 0.259738 0.499942 0 0 -0.280713 -0.13829 -0.134394 -0.0661061 0 0 -1.393 0 0 
164 1 164 0.259731 0.539943 0 0 -0.283532 -0.115067 -0.127839 -0.0712057 0 0 -1.50981 0 0 
165 1 165 0.259719 0.579947 0 0 -0.281673 -0.107558 -0.12483 -0.0723253 0 0 -1.82079 0 0 
166 1 166 0.259709 0.619952 0 0 -0.269762 -0.0843711 -0.113561 -0.0584087 0 0 -2.24995 0 0 
167 1 167 0.259699 0.659961 0 0 -0.265149 -0.0643199 -0.105642 -0.0758365 0 0 -1.16841 0 0 
168 1 168 0.259692 0.699971 0 0 -0.284843 -0.062763 -0.111461 -0.0367067 0 0 -1.43629 0 0 
169 1 169 0.259695 0.739985 0 0 -0.301153 -0.0442566 -0.110757 -0.0323994 0 0 -0.339364 0 0 
170 1 170 0.259699 0.780002 0 0 -0.30828 -0.0320752 -0.109133 -0.0162066 0 0 0.450058 0 0 
171 1 171 0.259707 0.82002 0 0 -0.317584 -0.0315495 -0.111947 0.00357073 0 0 -0.100353 0 0 
172 1 172 0.259712 0.860041 0 0 -0.314826 -0.00927853 -0.103919 -0.0148026 0 0 0.540184 0 0 
173 1 173 0.25971 0.900063 0 0 -0.309916 -0.0205854 -0.105967 -0.000889566 0 0 -0.999136 0 0 
174 1 174 0.259703 0.940083 0 0 -0.299237 -0.00959482 -0.0990305 -0.0241049 0 0 -1.56835 0 0 
175 1 175 0.259691 0.980104 0 0 -0.293039 -0.00700282 -0.0962069 -0.01241 0 0 -2.71414 0 0 
176 1 176 0.299979 0.0199894 0 0 -0.089 -0.173007 -0.083999 -0.0942786 0 0 -0.118659 0 0 
177 1 177 0.299942 0.059969 0 0 -0.105367 -0.170639 -0.0884861 -0.0843717 0 0 -0.355893 0 0 
178 1 178 0.299908 0.0999521 0 0 -0.112224 -0.146044 -0.0827935 -0.0941403 0 0 -0.733523 0 0 
179 1 179 0.299878 0.139938 0 0 -0.129985 -0.136897 -0.0855562 -0.0922913 0 0 -0.890574 0 0 
180 1 180 0.299852 0.179929 0 0 -0.159519 -0.118984 -0.0892863 -0.102075 0 0 -1.10759 0 0 
181 1 181 0.299829 0.219923 0 0 -0.194571 -0.119341 -0.100645 -0.104489 0 0 -0.749653 0 0 
182 1 182 0.299806 0.259922 0 0 -0.213706 -0.0964063 -0.099424 -0.112651 0 0 0.350519 0 0 
183 1 183 0.299782 0.299922 0 0 -0.252161 -0.109796 -0.116065 -0.118321 0 0 0.807662 0 0 
184 1 184 0.299759 0.339924 0 0 -0.25713 -0.115288 -0.119424 -0.110415 0 0 1.06281 0 0 
185 1 185 0.29974 0.379923 0 0 -0.265405 -0.135984 -0.128726 -0.101238 0 0 0.854455 0 0 
186 1 186 0.299726 0.419921 0 0 -0.278442 -0.154086 -0.138729 -0.0864727 0 0 0.159159 0 0 
187 1 187 0.299715 0.459917 0 0 -0.277089 -0.150368 -0.137108 -0.0792258 0 0 -0.23498 0 0 
188 1 188 0.299706 0.499915 0 0 -0.299431 -0.139243 -0.140714 -0.0723177 0 0 -0.395763 0 0 
189 1 189 0.299701 0.539917 0 0 -0.323953 -0.130213 -0.145684 -0.0607535 0 0 -0.359144 0 0 
190 1 190 0.299696 0.579923 0 0 -0.336307 -0.112634 -0.144002 -0.0663459 0 0 0.79011 0 0 
191 1 191 0.299691 0.619931 0 0 -0.37351 -0.118919 -0.157967 -0.0502161 0 0 1.46706 0 0 
192 1 192 0.299683 0.659942 0 0 -0.380145 -0.104469 -0.155455 -0.063087 0 0 2.67864 0 0 
193 1 193 0.299672 0.699955 0 0 -0.37561 -0.0858636 -0.148021 -0.0341768 0 0 2.58509 0 0 
194 1 194 0.299665 0.739972 0 0 -0.390987 -0.0685726 -0.147407 -0.0317227 0 0 2.96302 0 0 
195 1 195 0.299661 0.779993 0 0 -0.381161 -0.0424904 -0.135875 -0.00693397 0 0 2.66288 0 0 
196 1 196 0.299664 0.820015 0 0 -0.380164 -0.0413253 -0.135178 0.00443409 0 0 1.97409 0 0 
197 1 197 0.299664 0.860039 0 0 -0.370781 -0.0179083 -0.124651 -0.00677828 0 0 1.59824 0 0 
198 1 198 0.299662 0.900064 0 0 -0.342973 -0.011119 -0.11354 0.0089357 0 0 -0.384027 0 0 
199 1 199 0.299657 0.940087 0 0 -0.316803 -0.0108796 -0.105078 -0.0188953 0 0 -0.902872 0 0 
200 1 200 0.299646 0.980109 0 0 -0.288903 -0.00367791 -0.0938102 -0.000611545 0 0 -2.73142 0 0 
201 1 201 0.339978 0.0199881 0 0 -0.073819 -0.184681 -0.0828737 -0.0909471 0 0 -0.489456 0 0 
202 1 202 0.339938 0.0599634 0 0 -0.0713588 -0.188507 -0.0833088 -0.0897065 0 0 -0.951184 0 0 
203 1 203 0.339901 0.0999405 0 0 -0.0880235 -0.177248 -0.0850425 -0.103571 0 0 -1.11381 0 0 
204 1 204 0.339869 0.13992 0 0 -0.115671 -0.174813 -0.0931307 -0.107281 0 0 -1.17653 0 0 
205 1 205 0.339837 0.179904 0 0 -0.135817 -0.13835 -0.0878968 -0.123777 0 0 -1.24336 0 0 
206 1 206 0.339807 0.219894 0 0 -0.178786 -0.133512 -0.10013 -0.12388 0 0 -1.17358 0 0 
207 1 207 0.339778 0.25989 0 0 -0.214211 -0.109978 -0.103944 -0.135576 0 0 -0.077842 0 0 
208 1 208 0.339748 0.299889 0 0 -0.255062 -0.115199 -0.11873 -0.137512 0 0 0.659737 0 0 
209 1 209 0.339724 0.339891 0 0 -0.271949 -0.119945 -0.125676 -0.115591 0 0 0.609279 0 0 
210 1 210 0.339705 0.379891 0 0 -0.286799 -0.139548 -0.136737 -0.113812 0 0 0.729061 0 0 
211 1 211 0.339689 0.41989 0 0 -0.291833 -0.13989 -0.138466 -0.0898399 0 0 0.290751 0 0 
212 1 212 0.339678 0.45989 0 0 -0.301006 -0.144594 -0.142928 -0.0856521 0 0 -0.145291 0 0 
213 1 213 0.339663 0.499891 0 0 -0.316145 -0.130086 -0.143136 -0.085542 0 0 -0.540132 0 0 
214 1 214 0.339648 0.539896 0 0 -0.319475 -0.107352 -0.136901 -0.0611895 0 0 -1.71514 0 0 
215 1 215 0.339634 0.579904 0 0 -0.305471 -0.0886739 -0.126406 -0.0649767 0 0 -1.9778 0 0 
216 1 216 0.339619 0.619915 0 0 -0.278845 -0.0481351 -0.104846 -0.0540718 0 0 -2.40141 0 0 
217 1 217 0.339605 0.659929 0 0 -0.2811 -0.048181 -0.105582 -0.0573432 0 0 -2.0847 0 0 
218 1 218 0.339596 0.699944 0 0 -0.284908 -0.0246239 -0.0992435 -0.0355888 0 0 -1.18699 0 0 
219 1 219 0.339591 0.739964 0 0 -0.308162 -0.0154107 -0.10375 -0.0369093 0 0 0.365527 0 0 
220 1 220 0.339591 0.779986 0 0 -0.320223 -0.00346978 -0.103788 -0.00135536 0 0 0.105215 0 0 
221 1 221 0.339599 0.820011 0 0 -0.324316 0.0113002 -0.100359 -0.00418271 0 0 0.330428 0 0 
222 1 222 0.339601 0.860038 0 0 -0.333326 0.00825523 -0.104234 -0.00312951 0 0 0.0676917 0 0 
223 1 223 0.339605 0.900065 0 0 -0.321907 0.0176861 -0.0975381 0.0139259 0 0 -1.50046 0 0 
224 1 224 0.339605 0.94009 0 0 -0.311181 0.00251105 -0.0989773 -0.0155156 0 0 -1.34619 0 0 
225 1 225 0.339599 0.980113 0 0 -0.27814 0.00203745 -0.0885216 0.00657158 0 0 -3.0891 0 0 
226 1 226 0.379982 0.0199874 0 0 -0.0758645 -0.196135 -0.0872028 -0.0792091 0 0 -0.48953 0 0 
227 1 227 0.379945 0.059959 0 0 -0.0667091 -0.218124 -0.0913188 -0.0865907 0 0 -0.934254 0 0 
228 1 228 0.379906 0.09993 0 0 -0.0617262 -0.205736 -0.0857464 -0.0992543 0 0 -1.20108 0 0 
229 1 229 0.379867 0.139903 0 0 -0.0865978 -0.197713 -0.0911512 -0.105219 0 0 -1.48989 0 0 
230 1 230 0.379828 0.179882 0 0 -0.127878 -0.168588 -0.0950544 -0.122502 0 0 -1.4823 0 0 
231 1 231 0.37979 0.219867 0 0 -0.184554 -0.159609 -0.110362 -0.123906 0 0 -1.33866 0 0 
232 1 232 0.379753 0.25986 0 0 -0.223931 -0.127842 -0.112802 -0.132393 0 0 -0.400563 0 0 
233 1 233 0.379717 0.299857 0 0 -0.264486 -0.13326 -0.127558 -0.131158 0 0 0.379074 0 0 
234 1 234 0.37969 0.339857 0 0 -0.285121 -0.126007 -0.131855 -0.106415 0 0 0.550775 0 0 
235 1 235 0.379669 0.379858 0 0 -0.30971 -0.141855 -0.144837 -0.108261 0 0 0.983403 0 0 
236 1 236 0.379653 0.41986 0 0 -0.320985 -0.138985 -0.147537 -0.0838773 0 0 0.55569 0 0 
237 1 237 0.37964 0.459862 0 0 -0.337831 -0.13703 -0.152321 -0.0885974 0 0 0.407647 0 0 
238 1 238 0.379623 0.499867 0 0 -0.355684 -0.132733 -0.156679 -0.0868475 0 0 0.293626 0 0 
239 1 239 0.379611 0.539875 0 0 -0.361142 -0.104191 -0.149263 -0.0621319 0 0 -0.347322 0 0 
240 1 240 0.379603 0.579886 0 0 -0.402716 -0.121148 -0.168066 -0.0674691 0 0 0.390315 0 0 
241 1 241 0.379595 0.619899 0 0 -0.424671 -0.10296 -0.169279 -0.0541155 0 0 0.886297 0 0 
242 1 242 0.379584 0.659915 0 0 -0.432441 -0.103365 -0.171904 -0.0602286 0 0 1.81517 0 0 
243 1 243 0.37957 0.699933 0 0 -0.426961 -0.0806501 -0.162845 -0.0445498 0 0 2.4158 0 0 
244 1 244 0.379556 0.739954 0 0 -0.419565 -0.0588354 -0.15346 -0.0473564 0 0 2.99035 0 0 
245 1 245 0.379549 0.779978 0 0 -0.413657 -0.041648 -0.146043 -0.0102908 0 0 2.03581 0 0 
246 1 246 0.379549 0.820005 0 0 -0.413639 -0.0159856 -0.137796 -0.0173332 0 0 1.76237 0 0 
247 1 247 0.379548 0.860033 0 0 -0.401448 -0.0105266 -0.132135 -0.00850143 0 0 0.595329 0 0 
248 1 248 0.379552 0.900063 0 0 -0.370718 0.00884674 -0.116047 0.00797299 0 0 -1.02567 0 0 
249 1 249 0.379554 0.94009 0 0 -0.345583 -0.0051772 -0.11249 -0.0114109 0 0 -1.2064 0 0 
250 1 250 0.379554 0.980114 0 0 -0.291983 -0.000185802 -0.0936787 0.0131513 0 0 -3.12101 0 0 
251 1 251 0.419984 0.0199868 0 0 -0.071298 -0.201531 -0.0874684 -0.0659843 0 0 -0.688764 0 0 
252 1 252 0.419949 0.0599571 0 0 -0.0523333 -0.221316 -0.0877289 -0.0799387 0 0 -1.3393 0 0 
253 1 253 0.419911 0.0999257 0 0 -0.0579321 -0.225952 -0.091015 -0.0898482 0 0 -1.49705 0 0 
254 1 254 0.419868 0.139895 0 0 -0.0858344 -0.216779 -0.0970247 -0.102433 0 0 -1.67303 0 0 
255 1 255 0.419821 0.17987 0 0 -0.122789 -0.195106 -0.101932 -0.116135 0 0 -1.68921 0 0 
256 1 256 0.419773 0.219851 0 0 -0.16846 -0.173737 -0.109732 -0.118799 0 0 -1.57064 0 0 
257 1 257 0.419727 0.259841 0 0 -0.212789 -0.142417 -0.113906 -0.124529 0 0 -0.900279 0 0 
258 1 258 0.419685 0.299835 0 0 -0.256472 -0.151268 -0.130771 -0.118581 0 0 -0.384874 0 0 
259 1 259 0.419653 0.339832 0 0 -0.276645 -0.136275 -0.132434 -0.0955819 0 0 -0.16416 0 0 
260 1 260 0.419629 0.379832 0 0 -0.303991 -0.137381 -0.141567 -0.101811 0 0 0.276317 0 0 
261 1 261 0.419609 0.419834 0 0 -0.333691 -0.142887 -0.152873 -0.0804345 0 0 -0.110063 0 0 
262 1 262 0.419592 0.459838 0 0 -0.350462 -0.123818 -0.152135 -0.0901822 0 0 0.136696 0 0 
263 1 263 0.41957 0.499846 0 0 -0.370481 -0.124483 -0.158781 -0.0890967 0 0 -0.350857 0 0 
264 1 264 0.41955 0.539856 0 0 -0.371478 -0.101811 -0.151817 -0.0675239 0 0 -1.85714 0 0 
265 1 265 0.419532 0.579869 0 0 -0.354906 -0.0812078 -0.139878 -0.0751617 0 0 -2.2571 0 0 
266 1 266 0.419513 0.619884 0 0 -0.319567 -0.0446831 -0.116809 -0.0584091 0 0 -3.34486 0 0 
267 1 267 0.419499 0.659902 0 0 -0.307465 -0.0360749 -0.110161 -0.0639515 0 0 -3.03443 0 0 
268 1 268 0.419487 0.699921 0 0 -0.307098 -0.0119021 -0.102284 -0.0563418 0 0 -1.72843 0 0 
269 1 269 0.419478 0.739943 0 0 -0.326355 -0.0143497 -0.109249 -0.053806 0 0 -0.622553 0 0 
270 1 270 0.419475 0.779967 0 0 -0.335436 0.00422433 -0.106204 -0.0229075 0 0 -0.932719 0 0 
271 1 271 0.419478 0.819995 0 0 -0.349204 0.0213014 -0.105142 -0.0306835 0 0 -0.63794 0 0 
272 1 272 0.41948 0.860025 0 0 -0.362133 0.0127182 -0.112052 -0.0118472 0 0 -1.64075 0 0 
273 1 273 0.419489 0.900056 0 0 -0.351293 0.0316132 -0.102508 -0.00481061 0 0 -2.22894 0 0 
274 1 274 0.419497 0.940085 0 0 -0.341417 0.00414535 -0.108162 -0.0102836 0 0 -1.94982 0 0 
275 1 275 0.419506 0.98011 0 0 -0.300854 0.00641959 -0.094406 0.0130271 0 0 -3.13659 0 0 
276 1 276 0.459988 0.0199867 0 0 -0.0931122 -0.214262 -0.0985554 -0.0528894 0 0 -0.445535 0 0 
277 1 277 0.459959 0.0599573 0 0 -0.0820678 -0.225401 -0.0985813 -0.0695568 0 0 -1.00959 0 0 
278 1 278 0.45992 0.0999269 0 0 -0.078813 -0.235087 -0.100647 -0.0812389 0 0 -1.47984 0 0 
279 1 279 0.459872 0.139896 0 0 -0.096198 -0.229738 -0.10451 -0.100573 0 0 -1.86148 0 0 
280 1 280 0.459817 0.179869 0 0 -0.128494 -0.207299 -0.107675 -0.109335 0 0 -1.8561 0 0 
281 1 281 0.459761 0.219848 0 0 -0.177078 -0.195601 -0.119514 -0.112508 0 0 -1.8309 0 0 
282 1 282 0.459706 0.259834 0 0 -0.211947 -0.168871 -0.122127 -0.110198 0 0 -1.53346 0 0 
283 1 283 0.459658 0.299824 0 0 -0.245253 -0.168312 -0.132641 -0.0997738 0 0 -1.06348 0 0 
284 1 284 0.459621 0.339817 0 0 -0.28207 -0.162724 -0.142669 -0.0792371 0 0 -0.609997 0 0 
285 1 285 0.459592 0.379814 0 0 -0.313688 -0.154791 -0.150273 -0.0845554 0 0 -0.0816379 0 0 
286 1 286 0.459567 0.419815 0 0 -0.343403 -0.14624 -0.157069 -0.0683194 0 0 -0.131818 0 0 
287 1 287 0.459546 0.45982 0 0 -0.37085 -0.129163 -0.160404 -0.0769461 0 0 0.217976 0 0 
288 1 288 0.459523 0.499829 0 0 -0.388438 -0.126109 -0.165076 -0.0755303 0 0 -0.349643 0 0 
289 1 289 0.459506 0.539839 0 0 -0.408118 -0.117354 -0.168581 -0.0589921 0 0 -0.964489 0 0 
290 1 290 0.459493 0.579853 0 0 -0.445073 -0.120297 -0.181399 -0.0636931 0 0 -0.421503 0 0 
291 1 291 0.459483 0.619868 0 0 -0.471088 -0.11106 -0.186793 -0.0528366 0 0 -0.277351 0 0 
292 1 292 0.459471 0.659887 0 0 -0.492735 -0.122379 -0.197388 -0.0598709 0 0 0.658758 0 0 
293 1 293 0.459456 0.699906 0 0 -0.469126 -0.0876962 -0.178655 -0.0570268 0 0 1.37568 0 0 
294 1 294 0.45944 0.739928 0 0 -0.45191 -0.0784752 -0.17016 -0.0607243 0 0 1.67298 0 0 
295 1 295 0.459429 0.779952 0 0 -0.445549 -0.0481419 -0.158375 -0.0398283 0 0 0.813675 0 0 
296 1 296 0.459424 0.81998 0 0 -0.439071 -0.0207744 -0.147502 -0.0463707 0 0 0.446126 0 0 
297 1 297 0.459423 0.86001 0 0 -0.426685 -0.017201 -0.142382 -0.0248607 0 0 -1.09982 0 0 
298 1 298 0.45943 0.900041 0 0 -0.408056 0.00695377 -0.128643 -0.0196673 0 0 -1.7959 0 0 
299 1 299 0.45944 0.940071 0 0 -0.387562 -0.00611898 -0.126267 -0.0111344 0 0 -2.06825 0 0 
300 1 300 0.459454 0.980099 0 0 -0.350065 -0.000374331 -0.112378 0.00700894 0 0 -2.78612 0 0 
301 1 301 0.499987 0.0199872 0 0 -0.0963651 -0.20994 -0.0982132 -0.0486969 0 0 -0.47967 0 0 
302 1 302 0.499958 0.0599595 0 0 -0.093448 -0.217176 -0.0995949 -0.0647712 0 0 -1.30199 0 0 
303 1 303 0.499921 0.0999317 0 0 -0.0983293 -0.225497 -0.103834 -0.0801303 0 0 -1.64963 0 0 
304 1 304 0.49987 0.139903 0 0 -0.124255 -0.23611 -0.115561 -0.104113 0 0 -1.94458 0 0 
305 1 305 0.49981 0.179877 0 0 -0.145217 -0.21483 -0.115459 -0.110811 0 0 -1.98834 0 0 
306 1 306 0.499746 0.219855 0 0 -0.182471 -0.205793 -0.124515 -0.119306 0 0 -1.86058 0 0 
307 1 307 0.499684 0.259838 0 0 -0.216522 -0.196785 -0.132555 -0.104084 0 0 -2.16457 0 0 
308 1 308 0.499631 0.299824 0 0 -0.231658 -0.183393 -0.133116 -0.0927397 0 0 -2.00045 0 0 
309 1 309 0.499589 0.339814 0 0 -0.255801 -0.175901 -0.138463 -0.0767379 0 0 -1.54488 0 0 
310 1 310 0.499554 0.379808 0 0 -0.279942 -0.158859 -0.14074 -0.0779838 0 0 -1.26527 0 0 
311 1 311 0.499523 0.419806 0 0 -0.311797 -0.137892 -0.144236 -0.0720064 0 0 -1.17838 0 0 
312 1 312 0.499495 0.45981 0 0 -0.348942 -0.125257 -0.152113 -0.0790098 0 0 -0.935052 0 0 
313 1 313 0.499467 0.499818 0 0 -0.368525 -0.118599 -0.156268 -0.0734497 0 0 -1.60784 0 0 
314 1 314 0.499442 0.539828 0 0 -0.372895 -0.0994045 -0.151503 -0.0635582 0 0 -2.19983 0 0 
315 1 315 0.499418 0.579842 0 0 -0.362357 -0.0851995 -0.143553 -0.061234 0 0 -3.20921 0 0 
316 1 316 0.499397 0.619857 0 0 -0.327305 -0.0471959 -0.120096 -0.0511702 0 0 -4.45231 0 0 
317 1 317 0.499382 0.659875 0 0 -0.31333 -0.0365214 -0.112183 -0.0558171 0 0 -4.03257 0 0 
318 1 318 0.49937 0.699893 0 0 -0.306557 -0.0201272 -0.104749 -0.0499845 0 0 -3.39511 0 0 
319 1 319 0.49936 0.739914 0 0 -0.322108 -0.0273882 -0.112071 -0.0569474 0 0 -2.48954 0 0 
320 1 320 0.499353 0.779936 0 0 -0.334734 -0.00393778 -0.1086 -0.0444621 0 0 -2.48379 0 0 
321 1 321 0.499351 0.819963 0 0 -0.350578 0.00740275 -0.110042 -0.0453286 0 0 -2.36601 0 0 
322 1 322 0.499353 0.859991 0 0 -0.365595 0.00993705 -0.114053 -0.0286943 0 0 -3.04339 0 0 
323 1 323 0.499362 0.900022 0 0 -0.379097 0.0171235 -0.116079 -0.0266851 0 0 -2.77261 0 0 
324 1 324 0.499375 0.940053 0 0 -0.385209 0.00731204 -0.121196 -0.00592966 0 0 -2.74746 0 0 
325 1 325 0.499394 0.980083 0 0 -0.388116 0.00396401 -0.123198 0.00292677 0 0 -2.50106 0 0 
326 1 326 0.539988 0.0199872 0 0 -0.119578 -0.216763 -0.107852 -0.054734 0 0 -0.189727 0 0 
327 1 327 0.539959 0.0599615 0 0 -0.141293 -0.22191 -0.116473 -0.0647709 0 0 -1.14448 0 0 
328 1 328 0.539921 0.0999368 0 0 -0.139003 -0.221103 -0.11548 -0.0797814 0 0 -1.61905 0 0 