ITEM: TIMESTEP
0
ITEM: NUMBER OF ATOMS
6875
ITEM: BOX BOUNDS sm sm sm
0 4
0 2
0 0
ITEM: ATOMS id type tag x y z damage s11 s22 s33 s12 s13 s23 vx T ienergy 
1 1 1 0.0199972 0.0199996 0 0 -0.0156803 -0.0182404 -0.0108595 -0.00609969 0 0 0.0134209 0 0 
2 1 2 0.0199954 0.0599975 0 0 -0.0320207 -0.0218974 -0.0172596 -0.012266 0 0 0.00442424 0 0 
3 1 3 0.0199943 0.0999966 0 0 -0.069569 -0.0442371 -0.0364599 -0.0225139 0 0 -0.143737 0 0 
4 1 4 0.0199933 0.139994 0 0 -0.109813 -0.0579916 -0.0537751 -0.026717 0 0 0.0422703 0 0 
5 1 5 0.0199905 0.179994 0 0 -0.142113 -0.079117 -0.0709059 -0.0307889 0 0 0.23784 0 0 
6 1 6 0.0199891 0.219991 0 0 -0.167822 -0.0894837 -0.0824769 -0.0399768 0 0 0.329761 0 0 
7 1 7 0.0199867 0.259991 0 0 -0.198062 -0.10476 -0.0970814 -0.046451 0 0 0.257845 0 0 
8 1 8 0.0199851 0.299989 0 0 -0.226788 -0.110888 -0.108265 -0.0533848 0 0 0.0833403 0 0 
9 1 9 0.0199823 0.339989 0 0 -0.254049 -0.123311 -0.121003 -0.0525251 0 0 -0.0233002 0 0 
10 1 10 0.0199807 0.379989 0 0 -0.269264 -0.117867 -0.124137 -0.0526123 0 0 0.0820542 0 0 
11 1 11 0.0199776 0.419991 0 0 -0.283365 -0.131992 -0.133199 -0.0432585 0 0 -0.055922 0 0 
12 1 12 0.0199743 0.459992 0 0 -0.286288 -0.122638 -0.131136 -0.0439699 0 0 -0.053203 0 0 
13 1 13 0.0199675 0.499994 0 0 -0.306636 -0.141348 -0.143679 -0.0343781 0 0 -0.426232 0 0 
14 1 14 0.0199641 0.539994 0 0 -0.319456 -0.138078 -0.146749 -0.0339999 0 0 -0.345141 0 0 
15 1 15 0.0199595 0.579997 0 0 -0.350113 -0.157324 -0.16278 -0.0242189 0 0 0.149738 0 0 
16 1 16 0.0199519 0.619996 0 0 -0.374224 -0.158632 -0.170947 -0.0186736 0 0 0.322252 0 0 
17 1 17 0.0199376 0.659999 0 0 -0.397529 -0.174771 -0.183622 -0.00205764 0 0 -0.553907 0 0 
18 1 18 0.019931 0.7 0 0 -0.406528 -0.165546 -0.18355 0.0061518 0 0 -1.34652 0 0 
19 1 19 0.0199328 0.740005 0 0 -0.419348 -0.179767 -0.192239 0.0291136 0 0 -1.46908 0 0 
20 1 20 0.0199434 0.780008 0 0 -0.420952 -0.165392 -0.188135 0.0382303 0 0 -0.919719 0 0 
21 1 21 0.0199484 0.820015 0 0 -0.43571 -0.184438 -0.198998 0.0662998 0 0 -1.0641 0 0 
22 1 22 0.0199554 0.860018 0 0 -0.438337 -0.159871 -0.191946 0.0772823 0 0 -0.599479 0 0 
23 1 23 0.0199552 0.900028 0 0 -0.497006 -0.194875 -0.222058 0.109758 0 0 -0.344154 0 0 
24 1 24 0.0199588 0.940034 0 0 -0.531275 -0.188925 -0.231175 0.143201 0 0 0.135047 0 0 
25 1 25 0.0199383 0.980059 0 0 -0.742279 -0.154885 -0.298093 0.153916 0 0 0.250586 0 0 
26 1 26 0.0600003 0.0199982 0 0 -0.0203269 -0.0375992 -0.0185495 -0.00786056 0 0 0.0536316 0 0 
27 1 27 0.0599984 0.0599924 0 0 -0.0458634 -0.0524262 -0.0314865 -0.0207095 0 0 0.0594591 0 0 
28 1 28 0.0599892 0.0999882 0 0 -0.0791304 -0.0672533 -0.0469019 -0.0351306 0 0 -0.182542 0 0 
29 1 29 0.0599822 0.139984 0 0 -0.0948281 -0.063134 -0.0506117 -0.0350789 0 0 0.292715 0 0 
30 1 30 0.0599772 0.17998 0 0 -0.124148 -0.0883483 -0.068106 -0.0357268 0 0 0.54141 0 0 
31 1 31 0.0599732 0.219975 0 0 -0.1466 -0.0942227 -0.0771936 -0.0422318 0 0 0.575118 0 0 
32 1 32 0.0599667 0.259972 0 0 -0.179154 -0.109615 -0.0925772 -0.0449345 0 0 0.580453 0 0 
33 1 33 0.0599608 0.299968 0 0 -0.208065 -0.107518 -0.101179 -0.0494703 0 0 0.402134 0 0 
34 1 34 0.0599547 0.339968 0 0 -0.241093 -0.117813 -0.115084 -0.0423457 0 0 0.109282 0 0 
35 1 35 0.0599519 0.379968 0 0 -0.255755 -0.101075 -0.114415 -0.0434067 0 0 0.129432 0 0 
36 1 36 0.05995 0.419971 0 0 -0.282326 -0.121936 -0.129641 -0.0289513 0 0 -0.240359 0 0 
37 1 37 0.0599526 0.459973 0 0 -0.285749 -0.10586 -0.125581 -0.0343864 0 0 0.258765 0 0 
38 1 38 0.0599536 0.499977 0 0 -0.312239 -0.130319 -0.141942 -0.0242661 0 0 0.517379 0 0 
39 1 39 0.0599541 0.53998 0 0 -0.32564 -0.124666 -0.14443 -0.0272138 0 0 0.709669 0 0 
40 1 40 0.0599499 0.579987 0 0 -0.351747 -0.132212 -0.155238 -0.0194078 0 0 0.25417 0 0 
41 1 41 0.059952 0.619994 0 0 -0.373603 -0.130984 -0.161866 -0.0120805 0 0 -0.00950476 0 0 
42 1 42 0.0599579 0.660004 0 0 -0.407387 -0.136955 -0.174637 0.00527384 0 0 0.536635 0 0 
43 1 43 0.0599615 0.700013 0 0 -0.433927 -0.142327 -0.184893 0.0181824 0 0 1.25674 0 0 
44 1 44 0.0599544 0.740024 0 0 -0.450747 -0.140043 -0.189564 0.0410738 0 0 1.24665 0 0 
45 1 45 0.0599438 0.780036 0 0 -0.457444 -0.140713 -0.191932 0.0511809 0 0 1.06394 0 0 
46 1 46 0.0599333 0.820049 0 0 -0.47074 -0.133699 -0.193947 0.0729779 0 0 1.16302 0 0 
47 1 47 0.0599236 0.860064 0 0 -0.501639 -0.134997 -0.204305 0.0772798 0 0 1.29033 0 0 
48 1 48 0.0599091 0.900082 0 0 -0.505834 -0.104867 -0.195955 0.0972386 0 0 0.954912 0 0 
49 1 49 0.0598899 0.94011 0 0 -0.613228 -0.0810447 -0.222833 0.114654 0 0 0.629636 0 0 
50 1 50 0.059845 0.980152 0 0 -0.568962 0.0459896 -0.167781 0.0139106 0 0 1.05249 0 0 
51 1 51 0.0999958 0.0199959 0 0 -0.0403844 -0.0710433 -0.0357138 -0.0148955 0 0 -0.181143 0 0 
52 1 52 0.0999881 0.0599873 0 0 -0.0616514 -0.0813879 -0.0458395 -0.0327345 0 0 -0.0164237 0 0 
53 1 53 0.0999799 0.0999801 0 0 -0.0785245 -0.0802637 -0.05088 -0.0398793 0 0 0.085466 0 0 
54 1 54 0.0999715 0.139974 0 0 -0.0907671 -0.0736694 -0.0526911 -0.0386161 0 0 0.34166 0 0 
55 1 55 0.0999631 0.179968 0 0 -0.117331 -0.0948157 -0.067997 -0.0401852 0 0 0.338539 0 0 
56 1 56 0.0999546 0.219963 0 0 -0.136798 -0.0917927 -0.0732727 -0.0447141 0 0 0.466795 0 0 
57 1 57 0.0999451 0.259959 0 0 -0.166241 -0.104481 -0.0867911 -0.0456445 0 0 0.623942 0 0 
58 1 58 0.099934 0.299956 0 0 -0.188478 -0.0946856 -0.0907807 -0.0473169 0 0 0.579868 0 0 
59 1 59 0.0999231 0.339956 0 0 -0.221226 -0.103911 -0.104251 -0.0372937 0 0 0.275722 0 0 
60 1 60 0.0999138 0.379958 0 0 -0.242754 -0.0908117 -0.106952 -0.0368691 0 0 0.268665 0 0 
61 1 61 0.099906 0.419962 0 0 -0.272053 -0.106829 -0.121496 -0.0207957 0 0 -0.124265 0 0 
62 1 62 0.0998986 0.459967 0 0 -0.281715 -0.094312 -0.120582 -0.0262681 0 0 0.045222 0 0 
63 1 63 0.0998882 0.499974 0 0 -0.299057 -0.108508 -0.130708 -0.0180976 0 0 -0.270313 0 0 
64 1 64 0.0998789 0.53998 0 0 -0.316046 -0.101 -0.133751 -0.0215159 0 0 -0.0520651 0 0 
65 1 65 0.0998669 0.579988 0 0 -0.351175 -0.103442 -0.145813 -0.0158947 0 0 0.407831 0 0 
66 1 66 0.0998499 0.619998 0 0 -0.390591 -0.111318 -0.161006 -0.00452294 0 0 0.243783 0 0 
67 1 67 0.0998286 0.66001 0 0 -0.40701 -0.0950163 -0.161042 0.00794584 0 0 -0.593461 0 0 
68 1 68 0.0998142 0.700026 0 0 -0.428706 -0.102627 -0.17046 0.0278549 0 0 -1.72908 0 0 
69 1 69 0.0998126 0.740043 0 0 -0.445325 -0.0932881 -0.172799 0.041671 0 0 -1.50167 0 0 
70 1 70 0.0998179 0.780062 0 0 -0.474957 -0.109842 -0.187642 0.0590654 0 0 -1.13047 0 0 
71 1 71 0.0998206 0.820083 0 0 -0.484442 -0.0904228 -0.184447 0.0625065 0 0 -0.478426 0 0 
72 1 72 0.0998171 0.860106 0 0 -0.508951 -0.0917944 -0.192774 0.0685452 0 0 -0.349726 0 0 
73 1 73 0.0998079 0.900135 0 0 -0.55565 -0.0566229 -0.196468 0.0720725 0 0 0.271202 0 0 
74 1 74 0.0997849 0.940172 0 0 -0.563424 -0.00893543 -0.183643 0.0281448 0 0 0.859342 0 0 
75 1 75 0.0997459 0.980212 0 0 -0.525874 -0.0182819 -0.174585 0.0133877 0 0 1.47823 0 0 
76 1 76 0.139998 0.0199935 0 0 -0.0650909 -0.11287 -0.0570442 -0.0194269 0 0 -0.30239 0 0 
77 1 77 0.139991 0.0599815 0 0 -0.0700551 -0.0926411 -0.0521413 -0.0329877 0 0 -0.133468 0 0 
78 1 78 0.139977 0.0999733 0 0 -0.0751835 -0.0890198 -0.0526269 -0.038773 0 0 -0.0496925 0 0 
79 1 79 0.139964 0.139964 0 0 -0.090874 -0.0890279 -0.0576571 -0.040206 0 0 0.207302 0 0 
80 1 80 0.139953 0.179958 0 0 -0.114406 -0.0969921 -0.0677571 -0.0403508 0 0 0.381357 0 0 
81 1 81 0.139943 0.219952 0 0 -0.125879 -0.0814386 -0.0664481 -0.0450561 0 0 0.583397 0 0 
82 1 82 0.139929 0.259949 0 0 -0.155721 -0.0929776 -0.0797238 -0.0454665 0 0 0.784068 0 0 
83 1 83 0.139914 0.299947 0 0 -0.178983 -0.080613 -0.0832227 -0.0481735 0 0 0.753086 0 0 
84 1 84 0.139898 0.339948 0 0 -0.216155 -0.0932516 -0.0992073 -0.0361496 0 0 0.267412 0 0 
85 1 85 0.139887 0.379951 0 0 -0.234573 -0.0799996 -0.100861 -0.0320273 0 0 0.148843 0 0 
86 1 86 0.139879 0.419956 0 0 -0.260815 -0.0929963 -0.11345 -0.0125623 0 0 -0.154002 0 0 
87 1 87 0.139876 0.459961 0 0 -0.273187 -0.0802679 -0.113336 -0.0164402 0 0 0.304943 0 0 
88 1 88 0.139873 0.49997 0 0 -0.305433 -0.0966248 -0.12894 -0.00851925 0 0 0.60742 0 0 
89 1 89 0.139866 0.539978 0 0 -0.329461 -0.0860336 -0.133253 -0.0175579 0 0 0.846954 0 0 
90 1 90 0.139853 0.579992 0 0 -0.350194 -0.0811893 -0.138353 -0.0139759 0 0 0.266356 0 0 
91 1 91 0.139845 0.620007 0 0 -0.377382 -0.0760578 -0.145439 -0.00917771 0 0 -0.238872 0 0 
92 1 92 0.139841 0.660027 0 0 -0.422585 -0.0770372 -0.160272 0.00355457 0 0 0.290939 0 0 
93 1 93 0.139836 0.700048 0 0 -0.466573 -0.0869122 -0.177581 0.0174803 0 0 0.700593 0 0 
94 1 94 0.139823 0.740071 0 0 -0.489428 -0.087719 -0.185184 0.0311246 0 0 1.02246 0 0 
95 1 95 0.139807 0.780094 0 0 -0.506522 -0.0844253 -0.189622 0.0423455 0 0 0.854982 0 0 
96 1 96 0.13979 0.82012 0 0 -0.5284 -0.0813538 -0.195663 0.0481276 0 0 1.48301 0 0 
97 1 97 0.139772 0.860148 0 0 -0.549471 -0.0647832 -0.19711 0.0451609 0 0 1.78779 0 0 
98 1 98 0.139744 0.900183 0 0 -0.549009 -0.0303383 -0.185885 0.0304583 0 0 1.55789 0 0 
99 1 99 0.139711 0.940219 0 0 -0.544925 -0.0287534 -0.184079 0.0180452 0 0 1.51565 0 0 
100 1 100 0.139673 0.980258 0 0 -0.514325 0.00979792 -0.16186 0.00162208 0 0 2.18887 0 0 
101 1 101 0.179992 0.0199922 0 0 -0.0763841 -0.135672 -0.0679657 -0.0250543 0 0 -0.329239 0 0 
102 1 102 0.179979 0.0599787 0 0 -0.0814488 -0.105312 -0.0598566 -0.0316582 0 0 -0.219132 0 0 
103 1 103 0.179968 0.0999684 0 0 -0.0926776 -0.108739 -0.0645644 -0.0378573 0 0 -0.135244 0 0 
104 1 104 0.179955 0.139958 0 0 -0.099063 -0.104122 -0.0651273 -0.0419134 0 0 0.0848602 0 0 
105 1 105 0.179941 0.179951 0 0 -0.11168 -0.0935008 -0.0657635 -0.0400278 0 0 0.301803 0 0 
106 1 106 0.179926 0.219946 0 0 -0.129718 -0.0779413 -0.0665534 -0.0461145 0 0 0.56325 0 0 
107 1 107 0.179908 0.259944 0 0 -0.161685 -0.0873916 -0.0798412 -0.0481729 0 0 0.707097 0 0 
108 1 108 0.179888 0.299944 0 0 -0.178939 -0.0689926 -0.0794814 -0.0505499 0 0 0.689273 0 0 
109 1 109 0.179868 0.339947 0 0 -0.209747 -0.0806026 -0.0930959 -0.0390551 0 0 0.355634 0 0 
110 1 110 0.17985 0.379952 0 0 -0.227114 -0.0674596 -0.0944462 -0.0325496 0 0 0.275322 0 0 
111 1 111 0.179835 0.419959 0 0 -0.258964 -0.0801963 -0.108748 -0.0151347 0 0 -0.0253627 0 0 
112 1 112 0.179822 0.459967 0 0 -0.277559 -0.0721364 -0.11213 -0.0144388 0 0 0.0542228 0 0 
113 1 113 0.179806 0.499978 0 0 -0.292645 -0.0712029 -0.116674 -0.00977074 0 0 -0.142453 0 0 
114 1 114 0.179788 0.53999 0 0 -0.31325 -0.0606724 -0.119907 -0.0176877 0 0 0.175895 0 0 
115 1 115 0.179767 0.580005 0 0 -0.350948 -0.0644785 -0.133232 -0.0140663 0 0 0.390465 0 0 
116 1 116 0.179739 0.620021 0 0 -0.386559 -0.0580776 -0.142615 -0.0133745 0 0 0.331328 0 0 
117 1 117 0.179707 0.660042 0 0 -0.407348 -0.0534052 -0.147789 -0.000418826 0 0 -0.818413 0 0 
118 1 118 0.179683 0.700064 0 0 -0.421868 -0.0474578 -0.150547 0.0131331 0 0 -2.06041 0 0 
119 1 119 0.179673 0.74009 0 0 -0.456298 -0.0480039 -0.16178 0.0237525 0 0 -1.76913 0 0 
120 1 120 0.179671 0.780118 0 0 -0.492639 -0.0568288 -0.176293 0.0339501 0 0 -1.23902 0 0 
121 1 121 0.179667 0.820149 0 0 -0.510777 -0.038297 -0.176162 0.031906 0 0 -0.360271 0 0 
122 1 122 0.179655 0.860183 0 0 -0.536048 -0.0439494 -0.186097 0.0252918 0 0 -0.0750566 0 0 
123 1 123 0.179637 0.900219 0 0 -0.540916 -0.0175037 -0.179161 0.014015 0 0 0.990525 0 0 
124 1 124 0.179612 0.940257 0 0 -0.541947 -0.0197233 -0.180229 0.0069408 0 0 1.6442 0 0 
125 1 125 0.179581 0.980295 0 0 -0.497842 -0.00409533 -0.161036 0.0031842 0 0 2.35581 0 0 
126 1 126 0.219994 0.0199919 0 0 -0.0759156 -0.137747 -0.068482 -0.0303679 0 0 -0.0871243 0 0 
127 1 127 0.219981 0.0599773 0 0 -0.0807552 -0.114571 -0.0625994 -0.0308656 0 0 -0.0280418 0 0 
128 1 128 0.219964 0.0999651 0 0 -0.0902416 -0.119735 -0.0673041 -0.0340976 0 0 -0.212361 0 0 
129 1 129 0.219948 0.139954 0 0 -0.100123 -0.107519 -0.0665556 -0.0417535 0 0 0.076962 0 0 
130 1 130 0.219931 0.179946 0 0 -0.11997 -0.0954591 -0.0690499 -0.0411941 0 0 0.289732 0 0 
131 1 131 0.219912 0.219941 0 0 -0.141498 -0.0787431 -0.0705875 -0.0503975 0 0 0.41589 0 0 
132 1 132 0.21989 0.259941 0 0 -0.173857 -0.0851737 -0.0830306 -0.0501954 0 0 0.487105 0 0 
133 1 133 0.219866 0.299942 0 0 -0.187044 -0.0595024 -0.0790331 -0.0525917 0 0 0.691018 0 0 
134 1 134 0.219842 0.339947 0 0 -0.221989 -0.0796155 -0.0967068 -0.0411235 0 0 0.414889 0 0 
135 1 135 0.219823 0.379952 0 0 -0.239254 -0.0640324 -0.0972462 -0.0340827 0 0 0.295007 0 0 
136 1 136 0.219808 0.41996 0 0 -0.264867 -0.0702229 -0.107448 -0.0174019 0 0 0.183766 0 0 
137 1 137 0.219797 0.45997 0 0 -0.284698 -0.0625455 -0.11135 -0.0142559 0 0 0.418241 0 0 
138 1 138 0.219787 0.499983 0 0 -0.314856 -0.0628806 -0.12114 -0.0109971 0 0 0.786076 0 0 
139 1 139 0.219772 0.539998 0 0 -0.34038 -0.0533983 -0.126287 -0.0223878 0 0 1.07537 0 0 
140 1 140 0.21975 0.580017 0 0 -0.357786 -0.0554378 -0.13253 -0.0169567 0 0 0.207878 0 0 
141 1 141 0.219731 0.620038 0 0 -0.367574 -0.0326877 -0.128369 -0.0239207 0 0 0.00842252 0 0 
142 1 142 0.219717 0.660063 0 0 -0.416823 -0.0506687 -0.149955 -0.00952439 0 0 0.306052 0 0 
143 1 143 0.219703 0.700088 0 0 -0.460443 -0.0518063 -0.164334 -0.00209571 0 0 0.813028 0 0 
144 1 144 0.21968 0.740116 0 0 -0.486676 -0.0491319 -0.171901 0.00787819 0 0 1.13129 0 0 
145 1 145 0.219655 0.780145 0 0 -0.508671 -0.0471533 -0.178332 0.0169265 0 0 0.935973 0 0 
146 1 146 0.21963 0.820179 0 0 -0.532932 -0.0334814 -0.181731 0.0113981 0 0 1.88077 0 0 
147 1 147 0.219604 0.860213 0 0 -0.553674 -0.0378225 -0.189794 0.0104426 0 0 2.11865 0 0 
148 1 148 0.219573 0.900251 0 0 -0.542515 -0.0139886 -0.178544 -0.000189628 0 0 2.32811 0 0 
149 1 149 0.219541 0.940289 0 0 -0.527292 -0.0143517 -0.173795 0.000603666 0 0 2.25554 0 0 
150 1 150 0.219511 0.980327 0 0 -0.509804 -0.00391252 -0.164821 -0.000507298 0 0 3.03658 0 0 
151 1 151 0.259989 0.0199927 0 0 -0.0646308 -0.125825 -0.0610425 -0.0354347 0 0 -0.0961498 0 0 
152 1 152 0.259971 0.0599779 0 0 -0.0761298 -0.119896 -0.0628226 -0.0337071 0 0 -0.0368955 0 0 
153 1 153 0.259956 0.0999649 0 0 -0.0935841 -0.126406 -0.0705119 -0.0321711 0 0 -0.0772594 0 0 
154 1 154 0.259939 0.139953 0 0 -0.103362 -0.108233 -0.0678193 -0.0440808 0 0 0.23396 0 0 
155 1 155 0.259916 0.179946 0 0 -0.133121 -0.101621 -0.0752438 -0.044779 0 0 0.201378 0 0 
156 1 156 0.259892 0.219941 0 0 -0.161765 -0.0844103 -0.0789053 -0.0552118 0 0 0.487387 0 0 
157 1 157 0.259865 0.259942 0 0 -0.186718 -0.0787609 -0.0850966 -0.0501535 0 0 0.613249 0 0 
158 1 158 0.259837 0.299945 0 0 -0.19635 -0.0585148 -0.081697 -0.0534633 0 0 0.767766 0 0 
159 1 159 0.259809 0.339951 0 0 -0.224832 -0.0715775 -0.0950326 -0.0449179 0 0 0.609608 0 0 
160 1 160 0.259784 0.379959 0 0 -0.240963 -0.0582653 -0.095941 -0.0361815 0 0 0.532338 0 0 
161 1 161 0.259761 0.419969 0 0 -0.268769 -0.0590947 -0.105131 -0.0229229 0 0 0.545322 0 0 
162 1 162 0.259739 0.459981 0 0 -0.298561 -0.0548013 -0.11332 -0.0191978 0 0 0.476694 0 0 
163 1 163 0.259715 0.499998 0 0 -0.315704 -0.0458719 -0.115959 -0.0156128 0 0 0.278637 0 0 
164 1 164 0.259689 0.540015 0 0 -0.329144 -0.0322386 -0.115892 -0.0273464 0 0 0.512975 0 0 
165 1 165 0.259659 0.580035 0 0 -0.368575 -0.0445296 -0.132494 -0.0209308 0 0 0.553581 0 0 
166 1 166 0.259623 0.620056 0 0 -0.397461 -0.0365784 -0.139215 -0.0274197 0 0 0.660352 0 0 
167 1 167 0.259581 0.66008 0 0 -0.403533 -0.0364162 -0.14111 -0.00931629 0 0 -0.627006 0 0 
168 1 168 0.259549 0.700105 0 0 -0.402798 -0.0188027 -0.135217 -0.00544667 0 0 -1.55875 0 0 
169 1 169 0.25953 0.740135 0 0 -0.433911 -0.0161946 -0.144371 0.00421866 0 0 -1.29254 0 0 
170 1 170 0.259519 0.780166 0 0 -0.472025 -0.0214128 -0.158289 0.00863737 0 0 -0.813288 0 0 
171 1 171 0.259505 0.820201 0 0 -0.486574 -0.00335648 -0.157157 0.0028322 0 0 0.084624 0 0 
172 1 172 0.259487 0.860238 0 0 -0.502363 -0.00389751 -0.162409 0.0027078 0 0 0.453191 0 0 
173 1 173 0.259466 0.900277 0 0 -0.515857 0.000542685 -0.165312 -0.00725025 0 0 1.88633 0 0 
174 1 174 0.259443 0.940316 0 0 -0.52345 -0.0100541 -0.17118 0.0033454 0 0 2.35522 0 0 
175 1 175 0.259419 0.980354 0 0 -0.497852 0.00341531 -0.158625 0.000332452 0 0 3.03305 0 0 
176 1 176 0.299992 0.019993 0 0 -0.0629757 -0.117413 -0.0578149 -0.0398511 0 0 0.0317198 0 0 
177 1 177 0.299974 0.0599787 0 0 -0.0758846 -0.120514 -0.0629448 -0.0370033 0 0 0.140414 0 0 
178 1 178 0.299954 0.0999659 0 0 -0.0883206 -0.12025 -0.0668476 -0.0331023 0 0 0.0477949 0 0 
179 1 179 0.299931 0.139955 0 0 -0.110413 -0.105783 -0.0692931 -0.0491829 0 0 0.335147 0 0 
180 1 180 0.299903 0.179948 0 0 -0.147591 -0.105943 -0.0812723 -0.0490023 0 0 0.300982 0 0 
181 1 181 0.299874 0.219945 0 0 -0.16379 -0.0772959 -0.0772745 -0.05453 0 0 0.675937 0 0 
182 1 182 0.299842 0.259947 0 0 -0.188947 -0.0687538 -0.082602 -0.0483966 0 0 0.672964 0 0 
183 1 183 0.299811 0.299951 0 0 -0.215183 -0.0649913 -0.0898137 -0.0498388 0 0 0.73556 0 0 
184 1 184 0.29978 0.339957 0 0 -0.236535 -0.0655286 -0.0968396 -0.0408956 0 0 0.887943 0 0 
185 1 185 0.299753 0.379966 0 0 -0.254695 -0.0555148 -0.0994566 -0.0303818 0 0 1.00651 0 0 
186 1 186 0.29973 0.419977 0 0 -0.279563 -0.0551934 -0.10734 -0.0194316 0 0 0.993317 0 0 
187 1 187 0.29971 0.459991 0 0 -0.301793 -0.0408566 -0.109881 -0.0165913 0 0 1.05425 0 0 
188 1 188 0.299691 0.500009 0 0 -0.343042 -0.0459375 -0.124758 -0.0136179 0 0 1.15342 0 0 
189 1 189 0.299667 0.540028 0 0 -0.371995 -0.0405504 -0.132318 -0.0253063 0 0 1.17776 0 0 
190 1 190 0.299638 0.580051 0 0 -0.379628 -0.0401199 -0.134625 -0.0226088 0 0 0.420576 0 0 
191 1 191 0.299612 0.620076 0 0 -0.379538 -0.0226071 -0.128973 -0.0349597 0 0 0.370365 0 0 
192 1 192 0.299591 0.660103 0 0 -0.423307 -0.0445211 -0.150063 -0.0201795 0 0 0.628927 0 0 
193 1 193 0.299569 0.70013 0 0 -0.464401 -0.042984 -0.162769 -0.024199 0 0 1.54178 0 0 
194 1 194 0.299537 0.740159 0 0 -0.480278 -0.0386286 -0.166471 -0.0118042 0 0 1.64144 0 0 
195 1 195 0.299504 0.78019 0 0 -0.485789 -0.0216825 -0.162798 -0.0110821 0 0 1.55881 0 0 
196 1 196 0.29947 0.820226 0 0 -0.513363 -0.0101985 -0.167962 -0.0141503 0 0 2.41881 0 0 
197 1 197 0.299438 0.860263 0 0 -0.534446 -0.0145948 -0.176156 -0.00761791 0 0 2.60013 0 0 
198 1 198 0.299405 0.900303 0 0 -0.522023 0.00192607 -0.166851 -0.0149841 0 0 3.30141 0 0 
199 1 199 0.299374 0.940341 0 0 -0.518321 -0.00119401 -0.166685 -0.00190491 0 0 3.07848 0 0 
200 1 200 0.299347 0.980381 0 0 -0.532284 -0.00733552 -0.173139 -0.00219768 0 0 3.64167 0 0 
201 1 201 0.339988 0.0199939 0 0 -0.0479131 -0.102413 -0.0481746 -0.0420922 0 0 -0.107053 0 0 
202 1 202 0.339965 0.0599807 0 0 -0.0605371 -0.106641 -0.0535745 -0.0405513 0 0 0.0195963 0 0 
203 1 203 0.339946 0.0999695 0 0 -0.0878141 -0.108918 -0.0630512 -0.037255 0 0 0.191252 0 0 
204 1 204 0.33992 0.13996 0 0 -0.111157 -0.0963707 -0.0665133 -0.0556068 0 0 0.583867 0 0 
205 1 205 0.339886 0.179955 0 0 -0.142592 -0.0912462 -0.074955 -0.053316 0 0 0.614163 0 0 
206 1 206 0.33985 0.219954 0 0 -0.172685 -0.0709534 -0.0780964 -0.0561801 0 0 0.948175 0 0 
207 1 207 0.339814 0.259957 0 0 -0.201059 -0.0659382 -0.0855868 -0.0480033 0 0 0.865467 0 0 
208 1 208 0.339778 0.299963 0 0 -0.216847 -0.0584994 -0.0882637 -0.0461321 0 0 1.0537 0 0 
209 1 209 0.339744 0.339972 0 0 -0.228783 -0.0493313 -0.0891537 -0.0353197 0 0 1.30355 0 0 
210 1 210 0.339712 0.379982 0 0 -0.247473 -0.0445591 -0.093619 -0.0299694 0 0 1.3889 0 0 
211 1 211 0.33968 0.419996 0 0 -0.284176 -0.0490994 -0.106859 -0.0221494 0 0 1.23923 0 0 
212 1 212 0.339648 0.460011 0 0 -0.314879 -0.0368701 -0.112795 -0.020743 0 0 1.02798 0 0 
213 1 213 0.339614 0.500031 0 0 -0.337887 -0.0352118 -0.119653 -0.0190732 0 0 0.536772 0 0 
214 1 214 0.339579 0.540052 0 0 -0.354494 -0.0258757 -0.121984 -0.0292882 0 0 0.291272 0 0 
215 1 215 0.339543 0.580075 0 0 -0.399119 -0.0434956 -0.141967 -0.0247514 0 0 0.399866 0 0 
216 1 216 0.339501 0.620097 0 0 -0.426972 -0.0453616 -0.151513 -0.0325635 0 0 0.621311 0 0 
217 1 217 0.339454 0.660122 0 0 -0.41687 -0.0412358 -0.146942 -0.0148422 0 0 -0.411179 0 0 
218 1 218 0.339415 0.700147 0 0 -0.395068 -0.00961629 -0.129788 -0.0214529 0 0 -0.805695 0 0 
219 1 219 0.339388 0.740177 0 0 -0.419026 -0.0107229 -0.137835 -0.00731547 0 0 -0.85382 0 0 
220 1 220 0.339369 0.780209 0 0 -0.448249 -0.000481266 -0.143931 -0.0120317 0 0 -0.268859 0 0 
221 1 221 0.339347 0.820246 0 0 -0.453995 0.0208116 -0.138935 -0.0146167 0 0 0.462172 0 0 
222 1 222 0.339323 0.860285 0 0 -0.463923 0.0246161 -0.140911 -0.00697642 0 0 0.8356 0 0 
223 1 223 0.339301 0.900325 0 0 -0.490641 0.0186395 -0.151407 -0.0138324 0 0 2.60582 0 0 
224 1 224 0.339277 0.940365 0 0 -0.508097 0.0121179 -0.159124 0.00121926 0 0 3.02086 0 0 
225 1 225 0.339253 0.980406 0 0 -0.508234 0.0115565 -0.159341 -0.00380525 0 0 3.39165 0 0 
226 1 226 0.379991 0.0199946 0 0 -0.049461 -0.0928978 -0.0456173 -0.0431967 0 0 -0.0526591 0 0 
227 1 227 0.37997 0.0599829 0 0 -0.0637906 -0.0974124 -0.0516564 -0.0451383 0 0 0.0647642 0 0 
228 1 228 0.379942 0.0999738 0 0 -0.0837878 -0.091251 -0.0560941 -0.0457811 0 0 0.226368 0 0 
229 1 229 0.379909 0.139967 0 0 -0.114313 -0.082035 -0.0629282 -0.0624651 0 0 0.786844 0 0 
230 1 230 0.379871 0.179965 0 0 -0.147724 -0.0744892 -0.0712272 -0.0602098 0 0 0.971615 0 0 
231 1 231 0.37983 0.219966 0 0 -0.172634 -0.0591246 -0.0742897 -0.0605149 0 0 1.25066 0 0 
232 1 232 0.379789 0.259971 0 0 -0.192721 -0.0476932 -0.0770636 -0.0459072 0 0 1.15139 0 0 
233 1 233 0.37975 0.299979 0 0 -0.213658 -0.0459027 -0.0832042 -0.0407858 0 0 1.40771 0 0 
234 1 234 0.379714 0.339989 0 0 -0.23 -0.0367822 -0.0855228 -0.0288372 0 0 1.59285 0 0 
235 1 235 0.379679 0.38 0 0 -0.257867 -0.0451583 -0.0971489 -0.0256267 0 0 1.7101 0 0 
236 1 236 0.379647 0.420014 0 0 -0.280257 -0.0380386 -0.102051 -0.0196422 0 0 1.57151 0 0 
237 1 237 0.379616 0.46003 0 0 -0.308014 -0.0291647 -0.108112 -0.0190452 0 0 1.26909 0 0 
238 1 238 0.379587 0.50005 0 0 -0.359399 -0.0432944 -0.129147 -0.0185692 0 0 0.933884 0 0 
239 1 239 0.379554 0.540071 0 0 -0.394435 -0.042824 -0.140244 -0.0279015 0 0 0.585823 0 0 
240 1 240 0.379518 0.580095 0 0 -0.39863 -0.0428924 -0.141614 -0.0263103 0 0 -0.104247 0 0 
241 1 241 0.379486 0.62012 0 0 -0.398072 -0.035509 -0.13907 -0.0373657 0 0 -0.138074 0 0 
242 1 242 0.379461 0.660147 0 0 -0.446195 -0.0560747 -0.161129 -0.0251847 0 0 0.491709 0 0 
243 1 243 0.379434 0.700174 0 0 -0.487578 -0.0528996 -0.173404 -0.0339229 0 0 1.8632 0 0 
244 1 244 0.379396 0.740203 0 0 -0.49382 -0.0457789 -0.173119 -0.0178686 0 0 1.86869 0 0 
245 1 245 0.379355 0.780235 0 0 -0.488441 -0.0137855 -0.161114 -0.0248821 0 0 2.05029 0 0 
246 1 246 0.379314 0.820272 0 0 -0.512866 -0.0066166 -0.166657 -0.0193504 0 0 2.65876 0 0 
247 1 247 0.379277 0.86031 0 0 -0.523744 0.00311267 -0.167037 -0.010239 0 0 3.0307 0 0 
248 1 248 0.379241 0.900351 0 0 -0.51716 0.00785011 -0.163398 -0.0139952 0 0 3.9542 0 0 
249 1 249 0.379207 0.940391 0 0 -0.521519 0.0116619 -0.163586 -0.00196539 0 0 3.68868 0 0 
250 1 250 0.379177 0.980433 0 0 -0.56145 -0.0080291 -0.182733 -0.00768296 0 0 4.04603 0 0 
251 1 251 0.419987 0.0199954 0 0 -0.0394954 -0.0789744 -0.0379575 -0.0468356 0 0 -0.276797 0 0 
252 1 252 0.41996 0.0599859 0 0 -0.0582497 -0.0803458 -0.044406 -0.0536963 0 0 -0.209231 0 0 
253 1 253 0.419932 0.0999794 0 0 -0.0905695 -0.0754914 -0.0532147 -0.0568645 0 0 0.320769 0 0 
254 1 254 0.419895 0.139976 0 0 -0.113295 -0.0584279 -0.0550322 -0.0707958 0 0 0.94411 0 0 
255 1 255 0.41985 0.179977 0 0 -0.138234 -0.0500796 -0.0603563 -0.0688874 0 0 1.10535 0 0 
256 1 256 0.419804 0.219981 0 0 -0.166709 -0.0395634 -0.0661164 -0.0669617 0 0 1.50204 0 0 
257 1 257 0.419759 0.25999 0 0 -0.189986 -0.0302247 -0.0705857 -0.0497305 0 0 1.36543 0 0 
258 1 258 0.419716 0.3 0 0 -0.213679 -0.0333574 -0.0791904 -0.0452193 0 0 1.54844 0 0 
259 1 259 0.419676 0.340012 0 0 -0.228577 -0.025438 -0.0814293 -0.0331679 0 0 1.61536 0 0 
260 1 260 0.419636 0.380026 0 0 -0.250554 -0.0341367 -0.0912685 -0.0326467 0 0 1.62391 0 0 
261 1 261 0.419596 0.420041 0 0 -0.277571 -0.0303265 -0.0987158 -0.029108 0 0 1.40144 0 0 
262 1 262 0.419553 0.460059 0 0 -0.312761 -0.0301818 -0.109963 -0.0323143 0 0 0.77676 0 0 
263 1 263 0.419508 0.500079 0 0 -0.337837 -0.0334745 -0.119071 -0.030308 0 0 -0.190713 0 0 
264 1 264 0.419464 0.5401 0 0 -0.355248 -0.024894 -0.121904 -0.0364318 0 0 -0.690434 0 0 
265 1 265 0.419421 0.580123 0 0 -0.408138 -0.048586 -0.146494 -0.0299508 0 0 -0.455796 0 0 
266 1 266 0.419373 0.620145 0 0 -0.440212 -0.0550015 -0.158864 -0.0319208 0 0 -0.0194928 0 0 
267 1 267 0.419322 0.660169 0 0 -0.424496 -0.0421502 -0.149686 -0.0151193 0 0 -0.555061 0 0 
268 1 268 0.419277 0.700195 0 0 -0.39712 -0.00996915 -0.13056 -0.0190978 0 0 -0.781498 0 0 
269 1 269 0.419245 0.740226 0 0 -0.417116 -0.00530344 -0.13548 -0.00434446 0 0 -0.774271 0 0 
270 1 270 0.41922 0.780259 0 0 -0.443123 0.014688 -0.137416 -0.0150839 0 0 0.0853274 0 0 
271 1 271 0.41919 0.820297 0 0 -0.445809 0.0243755 -0.135167 -0.00635584 0 0 0.36155 0 0 
272 1 272 0.419163 0.860336 0 0 -0.445494 0.0439753 -0.128783 -0.00220709 0 0 0.9506 0 0 
273 1 273 0.419137 0.900377 0 0 -0.484659 0.0230236 -0.148087 -0.00631259 0 0 2.69302 0 0 
274 1 274 0.41911 0.940419 0 0 -0.506025 0.0215583 -0.155431 0.00159299 0 0 3.10719 0 0 
275 1 275 0.419079 0.980461 0 0 -0.519431 0.0168782 -0.161229 -0.00799331 0 0 3.41781 0 0 
276 1 276 0.459989 0.0199958 0 0 -0.049782 -0.0775457 -0.0407992 -0.0520781 0 0 -0.181034 0 0 
277 1 277 0.459962 0.059988 0 0 -0.0672054 -0.0668156 -0.0429395 -0.0622717 0 0 -0.103215 0 0 
278 1 278 0.459925 0.0999848 0 0 -0.0866283 -0.0522099 -0.0444866 -0.0686932 0 0 0.258602 0 0 
279 1 279 0.459881 0.139985 0 0 -0.11416 -0.0367688 -0.048366 -0.0815737 0 0 0.872266 0 0 
280 1 280 0.459833 0.17999 0 0 -0.144522 -0.0309543 -0.0562396 -0.0810203 0 0 1.19371 0 0 
281 1 281 0.459782 0.219996 0 0 -0.168006 -0.0256035 -0.0620542 -0.0782989 0 0 1.54829 0 0 
282 1 282 0.459732 0.260007 0 0 -0.186203 -0.0137264 -0.0640803 -0.0609682 0 0 1.30167 0 0 
283 1 283 0.459687 0.300019 0 0 -0.211287 -0.0206154 -0.0743348 -0.0549986 0 0 1.46906 0 0 
284 1 284 0.459644 0.340033 0 0 -0.225369 -0.0129947 -0.0764072 -0.0406626 0 0 1.56333 0 0 
285 1 285 0.459603 0.380047 0 0 -0.252845 -0.0249983 -0.0890711 -0.0411016 0 0 1.63973 0 0 
286 1 286 0.459562 0.420064 0 0 -0.275112 -0.022095 -0.0952834 -0.0380394 0 0 1.30098 0 0 
287 1 287 0.459521 0.460081 0 0 -0.304638 -0.0259634 -0.106004 -0.0413418 0 0 0.639236 0 0 
288 1 288 0.459481 0.500101 0 0 -0.350354 -0.0348693 -0.12354 -0.0366922 0 0 0.105298 0 0 
289 1 289 0.459438 0.540123 0 0 -0.391568 -0.0413951 -0.138864 -0.0410253 0 0 -0.331622 0 0 
290 1 290 0.459395 0.580147 0 0 -0.396866 -0.0394074 -0.139926 -0.0324902 0 0 -0.99545 0 0 
291 1 291 0.459358 0.620173 0 0 -0.395569 -0.0306808 -0.136711 -0.035552 0 0 -0.81446 0 0 
292 1 292 0.459328 0.6602 0 0 -0.449719 -0.0454335 -0.158841 -0.0268744 0 0 0.351605 0 0 
293 1 293 0.459295 0.700229 0 0 -0.505731 -0.0564474 -0.180376 -0.0272109 0 0 1.7132 0 0 
294 1 294 0.459252 0.74026 0 0 -0.509859 -0.0425618 -0.177237 -0.0120921 0 0 1.75697 0 0 
295 1 295 0.459204 0.780293 0 0 -0.496822 -0.00440912 -0.160796 -0.022249 0 0 2.05762 0 0 
296 1 296 0.459157 0.820331 0 0 -0.523914 -0.014945 -0.172883 -0.00644087 0 0 2.24491 0 0 
297 1 297 0.459117 0.860369 0 0 -0.529081 0.00807445 -0.167157 -0.00387886 0 0 2.89536 0 0 
298 1 298 0.459077 0.90041 0 0 -0.524231 0.000841215 -0.167923 -0.00168261 0 0 3.5634 0 0 
299 1 299 0.459039 0.940451 0 0 -0.525505 0.0128339 -0.164489 -0.00138758 0 0 3.55864 0 0 
300 1 300 0.459002 0.980493 0 0 -0.57571 -0.00922207 -0.187696 -0.0124812 0 0 4.2094 0 0 
301 1 301 0.499983 0.0199965 0 0 -0.0453529 -0.0690246 -0.0366485 -0.0608349 0 0 -0.320037 0 0 
302 1 302 0.499949 0.0599908 0 0 -0.0704216 -0.0513548 -0.0390153 -0.0726494 0 0 -0.263998 0 0 
303 1 303 0.499911 0.0999906 0 0 -0.103653 -0.0377168 -0.0453 -0.0812926 0 0 0.222699 0 0 
304 1 304 0.499864 0.139994 0 0 -0.125376 -0.0258956 -0.0484763 -0.0915859 0 0 0.718431 0 0 
305 1 305 0.49981 0.180001 0 0 -0.136761 -0.008707 -0.0466173 -0.0936009 0 0 1.00842 0 0 
306 1 306 0.499754 0.220011 0 0 -0.163884 -0.0126866 -0.05659 -0.0920208 0 0 1.37437 0 0 
307 1 307 0.499701 0.260023 0 0 -0.185719 -0.00328051 -0.0605732 -0.0764327 0 0 1.17346 0 0 
308 1 308 0.499651 0.300037 0 0 -0.213617 -0.0109391 -0.0719753 -0.0709749 0 0 1.36403 0 0 
309 1 309 0.499605 0.340053 0 0 -0.232444 -0.00761858 -0.0769489 -0.0572966 0 0 1.23097 0 0 
310 1 310 0.499559 0.38007 0 0 -0.251889 -0.0136288 -0.0851129 -0.0612362 0 0 1.04091 0 0 
311 1 311 0.49951 0.420088 0 0 -0.274662 -0.0136172 -0.0924173 -0.0601142 0 0 0.704421 0 0 
312 1 312 0.499458 0.460108 0 0 -0.306719 -0.0195302 -0.104608 -0.0645533 0 0 0.113307 0 0 
313 1 313 0.499403 0.50013 0 0 -0.31934 -0.0114684 -0.106074 -0.0556404 0 0 -0.78363 0 0 
314 1 314 0.49935 0.540153 0 0 -0.332558 -0.00595883 -0.108544 -0.057878 0 0 -1.13554 0 0 
315 1 315 0.499298 0.580177 0 0 -0.386861 -0.0223869 -0.131247 -0.0418587 0 0 -0.840056 0 0 
316 1 316 0.499245 0.620202 0 0 -0.430524 -0.035225 -0.149394 -0.0326804 0 0 -0.395492 0 0 
317 1 317 0.499188 0.660229 0 0 -0.408166 -0.0121278 -0.134797 -0.016845 0 0 -0.606437 0 0 
318 1 318 0.499137 0.700258 0 0 -0.380174 0.0132574 -0.117662 -0.0118185 0 0 -0.932984 0 0 
319 1 319 0.499099 0.740291 0 0 -0.409267 0.0147775 -0.126512 0.000297645 0 0 -0.878733 0 0 
320 1 320 0.499067 0.780326 0 0 -0.441155 0.0255637 -0.133293 -0.00799713 0 0 -0.147902 0 0 
321 1 321 0.499034 0.820365 0 0 -0.445768 0.0192982 -0.136782 0.00739692 0 0 -0.237669 0 0 
322 1 322 0.499003 0.860404 0 0 -0.442727 0.0487319 -0.126362 0.00274086 0 0 0.570554 0 0 
323 1 323 0.498972 0.900445 0 0 -0.492768 0.012896 -0.153939 0.00696312 0 0 1.75001 0 0 
324 1 324 0.498941 0.940485 0 0 -0.512684 0.0177015 -0.158801 0.00137497 0 0 2.48305 0 0 
325 1 325 0.498902 0.980528 0 0 -0.521979 0.0142793 -0.162878 -0.010722 0 0 3.1873 0 0 
326 1 326 0.539984 0.019997 0 0 -0.0566813 -0.0657668 -0.0392358 -0.0732156 0 0 -0.139301 0 0 