ITEM: TIMESTEP
0
ITEM: NUMBER OF ATOMS
6875
ITEM: BOX BOUNDS sm sm sm
0 4
0 2
0 0
ITEM: ATOMS id type tag x y z damage s11 s22 s33 s12 s13 s23 vx T ienergy 
1 1 1 0.0199984 0.0200004 0 0 -0.00217651 -0.000527988 -0.000858295 -0.000492808 0 0 0.129861 0 0 
2 1 2 0.0199977 0.0600005 0 0 0.00143693 0.00546846 0.00222846 0.00286765 0 0 0.191934 0 0 
3 1 3 0.0199979 0.100001 0 0 -0.00659456 -0.00202357 -0.00274782 0.00148843 0 0 0.114281 0 0 
4 1 4 0.0199978 0.140001 0 0 -0.0278704 -0.0147872 -0.013657 0.0010252 0 0 -0.191261 0 0 
5 1 5 0.0199963 0.18 0 0 -0.0496721 -0.0340487 -0.0268153 -0.00198747 0 0 -0.247406 0 0 
6 1 6 0.0199956 0.219998 0 0 -0.0614254 -0.0374524 -0.0316728 -0.00874306 0 0 -0.148944 0 0 
7 1 7 0.0199948 0.259997 0 0 -0.0714953 -0.0446728 -0.0372148 -0.0138825 0 0 -0.142105 0 0 
8 1 8 0.0199945 0.299995 0 0 -0.0772504 -0.0397 -0.0374632 -0.0206515 0 0 0.0335288 0 0 
9 1 9 0.0199929 0.339996 0 0 -0.0904925 -0.0448012 -0.0433435 -0.0214619 0 0 0.100217 0 0 
10 1 10 0.0199919 0.379995 0 0 -0.102722 -0.0433834 -0.0468082 -0.022174 0 0 0.246288 0 0 
11 1 11 0.0199892 0.419997 0 0 -0.120432 -0.0525935 -0.0554402 -0.0174629 0 0 0.234129 0 0 
12 1 12 0.0199861 0.459998 0 0 -0.137942 -0.0514183 -0.0606805 -0.0145466 0 0 -0.0618686 0 0 
13 1 13 0.0199817 0.500001 0 0 -0.162211 -0.0717878 -0.0749991 -0.00397924 0 0 -0.542148 0 0 
14 1 14 0.0199777 0.540002 0 0 -0.18163 -0.0723807 -0.0814211 -0.00367727 0 0 -0.447367 0 0 
15 1 15 0.01997 0.580003 0 0 -0.215516 -0.100962 -0.101467 0.00652954 0 0 -0.547522 0 0 
16 1 16 0.0199625 0.620003 0 0 -0.231123 -0.0996278 -0.106048 0.0059938 0 0 -0.739131 0 0 
17 1 17 0.0199551 0.660004 0 0 -0.264919 -0.120606 -0.123632 0.0121481 0 0 -1.32661 0 0 
18 1 18 0.0199536 0.700006 0 0 -0.298305 -0.112365 -0.131705 0.0173728 0 0 -1.73882 0 0 
19 1 19 0.0199544 0.74001 0 0 -0.341596 -0.142768 -0.155371 0.0421691 0 0 -2.05055 0 0 
20 1 20 0.0199578 0.780014 0 0 -0.379803 -0.129401 -0.16335 0.0513055 0 0 -1.30892 0 0 
21 1 21 0.0199584 0.820022 0 0 -0.433956 -0.176057 -0.195741 0.0964824 0 0 -1.52044 0 0 
22 1 22 0.0199629 0.860027 0 0 -0.451406 -0.157029 -0.195235 0.108862 0 0 -0.602691 0 0 
23 1 23 0.0199603 0.900037 0 0 -0.517893 -0.20881 -0.233258 0.151372 0 0 -0.857842 0 0 
24 1 24 0.0199619 0.940043 0 0 -0.540454 -0.193608 -0.235634 0.177299 0 0 -0.442537 0 0 
25 1 25 0.0199401 0.980066 0 0 -0.772398 -0.184862 -0.317443 0.18293 0 0 -0.5074 0 0 
26 1 26 0.0600011 0.0200008 0 0 0.00425943 0.00577305 0.00322484 0.00013696 0 0 0.40426 0 0 
27 1 27 0.0600023 0.0600006 0 0 -0.00472912 0.000630727 -0.00130145 -0.00134268 0 0 0.558517 0 0 
28 1 28 0.059999 0.100001 0 0 -0.025831 -0.014327 -0.0128529 -0.0110817 0 0 0.392619 0 0 
29 1 29 0.0599953 0.14 0 0 -0.0358057 -0.0235776 -0.0190115 -0.0121793 0 0 -0.0543047 0 0 
30 1 30 0.0599931 0.179998 0 0 -0.0456881 -0.0454803 -0.029204 -0.0120045 0 0 -0.176108 0 0 
31 1 31 0.0599918 0.219994 0 0 -0.0507135 -0.0430273 -0.03003 -0.0164155 0 0 -0.227894 0 0 
32 1 32 0.0599889 0.259991 0 0 -0.0695777 -0.0527339 -0.0391896 -0.0140979 0 0 -0.44412 0 0 
33 1 33 0.0599869 0.299988 0 0 -0.0834247 -0.0454028 -0.0412753 -0.0176488 0 0 -0.0218785 0 0 
34 1 34 0.0599836 0.339988 0 0 -0.101384 -0.0475134 -0.047711 -0.0133045 0 0 0.200176 0 0 
35 1 35 0.0599813 0.379989 0 0 -0.113455 -0.038934 -0.0488281 -0.014004 0 0 0.669841 0 0 
36 1 36 0.0599784 0.419992 0 0 -0.135663 -0.0487692 -0.0591019 -0.00723523 0 0 1.09733 0 0 
37 1 37 0.0599767 0.459995 0 0 -0.150597 -0.0373817 -0.0602427 -0.00984285 0 0 1.53635 0 0 
38 1 38 0.0599744 0.5 0 0 -0.184748 -0.0648065 -0.0799943 0.00578331 0 0 1.33831 0 0 
39 1 39 0.059974 0.540004 0 0 -0.197569 -0.0593512 -0.0823571 0.00242964 0 0 1.2848 0 0 
40 1 40 0.0599738 0.580009 0 0 -0.226155 -0.0878027 -0.100659 0.0202192 0 0 0.402189 0 0 
41 1 41 0.0599771 0.620013 0 0 -0.246548 -0.0856692 -0.10652 0.0213821 0 0 0.345011 0 0 
42 1 42 0.0599742 0.660018 0 0 -0.295082 -0.109741 -0.129827 0.030579 0 0 0.658838 0 0 
43 1 43 0.0599651 0.700026 0 0 -0.325653 -0.0867358 -0.132257 0.0322061 0 0 1.27785 0 0 
44 1 44 0.0599511 0.740038 0 0 -0.38918 -0.112401 -0.160901 0.0583413 0 0 1.11714 0 0 
45 1 45 0.0599368 0.780052 0 0 -0.41567 -0.0852526 -0.160689 0.0560749 0 0 1.65149 0 0 
46 1 46 0.0599222 0.82007 0 0 -0.464197 -0.10987 -0.184188 0.104343 0 0 0.633397 0 0 
47 1 47 0.0599126 0.860088 0 0 -0.492334 -0.108186 -0.192697 0.105291 0 0 0.723117 0 0 
48 1 48 0.0599001 0.900109 0 0 -0.511369 -0.104208 -0.197524 0.144522 0 0 0.201938 0 0 
49 1 49 0.0598863 0.940137 0 0 -0.605376 -0.0891065 -0.222902 0.159762 0 0 -0.0223055 0 0 
50 1 50 0.0598391 0.980176 0 0 -0.580023 0.024213 -0.178332 0.0413686 0 0 0.221885 0 0 
51 1 51 0.0999985 0.0200002 0 0 -0.00391789 -0.00288848 -0.00218384 -0.00368803 0 0 0.106023 0 0 
52 1 52 0.0999954 0.0599991 0 0 -0.0210457 -0.0183246 -0.0126103 -0.012913 0 0 0.105425 0 0 
53 1 53 0.0999929 0.0999981 0 0 -0.0328352 -0.0247127 -0.0184277 -0.0185453 0 0 0.288551 0 0 
54 1 54 0.0999904 0.139996 0 0 -0.0351342 -0.0290159 -0.0205428 -0.0158244 0 0 0.110425 0 0 
55 1 55 0.0999881 0.179993 0 0 -0.0457202 -0.0454834 -0.0292182 -0.0151599 0 0 -0.258348 0 0 
56 1 56 0.0999841 0.21999 0 0 -0.0602583 -0.047283 -0.0344567 -0.0204094 0 0 -0.410473 0 0 
57 1 57 0.0999793 0.259987 0 0 -0.0769727 -0.050166 -0.0407412 -0.0149059 0 0 -0.799118 0 0 
58 1 58 0.0999739 0.299986 0 0 -0.09167 -0.0438613 -0.0434299 -0.0189451 0 0 -0.345086 0 0 
59 1 59 0.0999676 0.339987 0 0 -0.107893 -0.0408025 -0.0476516 -0.00998109 0 0 -0.0403419 0 0 
60 1 60 0.0999609 0.37999 0 0 -0.126342 -0.033063 -0.0510823 -0.0134828 0 0 0.581421 0 0 
61 1 61 0.0999526 0.419995 0 0 -0.156069 -0.0434462 -0.0639434 -0.00255901 0 0 0.648597 0 0 
62 1 62 0.0999428 0.460001 0 0 -0.171242 -0.032598 -0.0653323 -0.00615092 0 0 0.486202 0 0 
63 1 63 0.0999325 0.500009 0 0 -0.196392 -0.0447047 -0.0772841 0.0121002 0 0 -0.196625 0 0 
64 1 64 0.0999227 0.540018 0 0 -0.216389 -0.0467618 -0.0843571 0.0111345 0 0 -0.221202 0 0 
65 1 65 0.0999096 0.580026 0 0 -0.246476 -0.0662732 -0.100269 0.0294779 0 0 -0.499542 0 0 
66 1 66 0.0998951 0.620035 0 0 -0.271001 -0.0645779 -0.107599 0.0294016 0 0 -0.663424 0 0 
67 1 67 0.099878 0.660045 0 0 -0.30628 -0.0781079 -0.123265 0.0367418 0 0 -1.28925 0 0 
68 1 68 0.0998634 0.700057 0 0 -0.334177 -0.062654 -0.127262 0.0394911 0 0 -1.85025 0 0 
69 1 69 0.0998503 0.740075 0 0 -0.382276 -0.0590582 -0.141553 0.0538954 0 0 -1.93804 0 0 
70 1 70 0.0998392 0.780096 0 0 -0.424858 -0.0539941 -0.153603 0.0637884 0 0 -1.57569 0 0 
71 1 71 0.0998301 0.820122 0 0 -0.451338 -0.0438339 -0.158844 0.0936188 0 0 -1.64849 0 0 
72 1 72 0.0998236 0.86015 0 0 -0.485099 -0.0515539 -0.172178 0.10126 0 0 -1.48517 0 0 
73 1 73 0.0998123 0.900181 0 0 -0.521171 -0.0297223 -0.176744 0.118531 0 0 -1.55101 0 0 
74 1 74 0.0997917 0.940219 0 0 -0.527 0.00619353 -0.167079 0.0809737 0 0 -1.5474 0 0 
75 1 75 0.0997485 0.980257 0 0 -0.502058 -0.0237751 -0.168698 0.0323809 0 0 -0.603648 0 0 
76 1 76 0.14 0.0199989 0 0 -0.0198913 -0.0267679 -0.0149517 -0.007363 0 0 0.0532824 0 0 
77 1 77 0.139998 0.0599953 0 0 -0.0332254 -0.0324272 -0.0210325 -0.0171826 0 0 0.25297 0 0 
78 1 78 0.139992 0.0999939 0 0 -0.0370114 -0.0274951 -0.0206676 -0.0186105 0 0 0.431602 0 0 
79 1 79 0.139987 0.139991 0 0 -0.0531006 -0.0433166 -0.0308915 -0.0150398 0 0 0.125564 0 0 
80 1 80 0.139984 0.179989 0 0 -0.0644491 -0.0449056 -0.0350372 -0.0145846 0 0 -0.552862 0 0 
81 1 81 0.139979 0.219986 0 0 -0.0746689 -0.0484788 -0.0394589 -0.0200585 0 0 -0.733751 0 0 
82 1 82 0.139972 0.259985 0 0 -0.0857902 -0.0446595 -0.0418016 -0.0140181 0 0 -1.19858 0 0 
83 1 83 0.139963 0.299985 0 0 -0.104089 -0.0391047 -0.0458901 -0.0206128 0 0 -0.693245 0 0 
84 1 84 0.139954 0.339988 0 0 -0.128578 -0.0381308 -0.0534321 -0.0088332 0 0 -0.352889 0 0 
85 1 85 0.139945 0.379993 0 0 -0.148343 -0.0280513 -0.0565334 -0.0148468 0 0 0.397244 0 0 
86 1 86 0.139935 0.420001 0 0 -0.177447 -0.0305266 -0.066657 -0.000304845 0 0 0.976673 0 0 
87 1 87 0.139926 0.46001 0 0 -0.201979 -0.0269425 -0.0733765 0.000560068 0 0 1.55147 0 0 
88 1 88 0.139917 0.500021 0 0 -0.234314 -0.036969 -0.086968 0.0190913 0 0 1.58722 0 0 
89 1 89 0.13991 0.540033 0 0 -0.255371 -0.0372464 -0.0938118 0.0214296 0 0 1.20017 0 0 
90 1 90 0.139904 0.580047 0 0 -0.278646 -0.0522274 -0.106087 0.0377281 0 0 0.447585 0 0 
91 1 91 0.139899 0.620061 0 0 -0.304593 -0.047779 -0.11299 0.0320774 0 0 0.279485 0 0 
92 1 92 0.139886 0.660078 0 0 -0.347707 -0.0646774 -0.132256 0.0359665 0 0 0.563932 0 0 
93 1 93 0.139864 0.700095 0 0 -0.391427 -0.0627488 -0.145679 0.0308788 0 0 0.977133 0 0 
94 1 94 0.139834 0.740118 0 0 -0.435365 -0.0544319 -0.15712 0.0403997 0 0 1.32822 0 0 
95 1 95 0.139806 0.780144 0 0 -0.463593 -0.0399562 -0.161541 0.0511868 0 0 1.14835 0 0 
96 1 96 0.139782 0.820175 0 0 -0.487128 -0.0343507 -0.167297 0.0791934 0 0 0.401109 0 0 
97 1 97 0.139763 0.860208 0 0 -0.502392 -0.00694067 -0.163395 0.079157 0 0 0.0755653 0 0 
98 1 98 0.13974 0.900247 0 0 -0.513682 -0.00452231 -0.166239 0.0853334 0 0 -0.69113 0 0 
99 1 99 0.139715 0.940285 0 0 -0.500042 0.00753302 -0.157998 0.0664609 0 0 -0.720085 0 0 
100 1 100 0.139674 0.980324 0 0 -0.478141 0.00663364 -0.151252 0.02215 0 0 -0.0822707 0 0 
101 1 101 0.179996 0.0199976 0 0 -0.034284 -0.048999 -0.0266779 -0.0128783 0 0 -0.108347 0 0 
102 1 102 0.179989 0.0599929 0 0 -0.0499226 -0.0445428 -0.0302657 -0.0180248 0 0 -0.0202055 0 0 
103 1 103 0.179984 0.0999908 0 0 -0.0559827 -0.0370368 -0.0298092 -0.0182739 0 0 0.174417 0 0 
104 1 104 0.17998 0.139988 0 0 -0.0649151 -0.049265 -0.0365883 -0.0141962 0 0 -0.0471289 0 0 
105 1 105 0.179975 0.179987 0 0 -0.0636242 -0.0337067 -0.0311832 -0.0137675 0 0 -0.678071 0 0 
106 1 106 0.179968 0.219986 0 0 -0.0771581 -0.0396226 -0.037414 -0.0183541 0 0 -0.924535 0 0 
107 1 107 0.179958 0.259987 0 0 -0.0925295 -0.0357511 -0.0411027 -0.0149304 0 0 -1.52299 0 0 
108 1 108 0.179947 0.299989 0 0 -0.110736 -0.0284102 -0.0445932 -0.0203906 0 0 -1.25486 0 0 
109 1 109 0.179932 0.339994 0 0 -0.141604 -0.0317932 -0.0555801 -0.0122691 0 0 -0.829151 0 0 
110 1 110 0.179918 0.380001 0 0 -0.166519 -0.0179468 -0.0591246 -0.0146616 0 0 -0.12179 0 0 
111 1 111 0.179901 0.420013 0 0 -0.192686 -0.01775 -0.0674477 -0.00508758 0 0 0.210303 0 0 
112 1 112 0.179883 0.460026 0 0 -0.209615 -0.00581964 -0.069051 -0.00275758 0 0 0.124154 0 0 
113 1 113 0.179865 0.500042 0 0 -0.231179 -0.0128056 -0.0782113 0.0114812 0 0 -0.329962 0 0 
114 1 114 0.179848 0.540058 0 0 -0.256788 -0.010312 -0.0856247 0.0157089 0 0 -0.437079 0 0 
115 1 115 0.179829 0.580076 0 0 -0.298724 -0.0296883 -0.1053 0.0291743 0 0 -0.602258 0 0 
116 1 116 0.179805 0.620095 0 0 -0.335823 -0.0346516 -0.118803 0.0238854 0 0 -0.766922 0 0 
117 1 117 0.179778 0.660115 0 0 -0.361527 -0.0403135 -0.128872 0.0314136 0 0 -1.57497 0 0 
118 1 118 0.179751 0.700137 0 0 -0.379888 -0.0335856 -0.132611 0.0216898 0 0 -1.79998 0 0 
119 1 119 0.179724 0.740162 0 0 -0.408532 -0.0246041 -0.138923 0.0304087 0 0 -1.83531 0 0 
120 1 120 0.179701 0.78019 0 0 -0.428333 -0.0133626 -0.141674 0.0416884 0 0 -1.81757 0 0 
121 1 121 0.179683 0.820223 0 0 -0.450606 0.00896302 -0.141653 0.0585925 0 0 -1.63725 0 0 
122 1 122 0.179668 0.860261 0 0 -0.469234 0.0215876 -0.143578 0.0594583 0 0 -1.73697 0 0 
123 1 123 0.179651 0.900301 0 0 -0.466497 0.0315442 -0.139499 0.0665111 0 0 -1.7874 0 0 
124 1 124 0.17963 0.940341 0 0 -0.462234 0.0338052 -0.137425 0.0504707 0 0 -1.68615 0 0 
125 1 125 0.179596 0.980379 0 0 -0.443563 0.00598729 -0.140361 0.0192677 0 0 -1.342 0 0 
126 1 126 0.219997 0.0199965 0 0 -0.0470222 -0.066536 -0.0363839 -0.0213652 0 0 -0.027378 0 0 
127 1 127 0.219989 0.0599909 0 0 -0.0631301 -0.0508807 -0.0365274 -0.0214702 0 0 -0.00139664 0 0 
128 1 128 0.21998 0.0999883 0 0 -0.0704239 -0.0462783 -0.0373956 -0.0172269 0 0 0.0714341 0 0 
129 1 129 0.219973 0.139987 0 0 -0.0748486 -0.0400159 -0.0368065 -0.0101132 0 0 0.0487929 0 0 
130 1 130 0.219968 0.179987 0 0 -0.0813551 -0.0332997 -0.0367366 -0.00816501 0 0 -0.469829 0 0 
131 1 131 0.219959 0.219988 0 0 -0.0896818 -0.0301975 -0.0384058 -0.0123859 0 0 -0.867802 0 0 
132 1 132 0.219947 0.259991 0 0 -0.104118 -0.0290863 -0.0426772 -0.0122928 0 0 -1.47154 0 0 
133 1 133 0.219931 0.299995 0 0 -0.12371 -0.0207631 -0.0462973 -0.0198007 0 0 -1.48649 0 0 
134 1 134 0.219914 0.340002 0 0 -0.152918 -0.0257978 -0.0572847 -0.0151533 0 0 -1.14447 0 0 
135 1 135 0.219895 0.380012 0 0 -0.173533 -0.0046657 -0.0571183 -0.0181885 0 0 -0.434994 0 0 
136 1 136 0.219875 0.420025 0 0 -0.214933 -0.0167146 -0.0742572 -0.0106381 0 0 0.114957 0 0 
137 1 137 0.219857 0.46004 0 0 -0.247982 -0.00539635 -0.0812298 -0.00910847 0 0 0.929705 0 0 
138 1 138 0.21984 0.500059 0 0 -0.288363 -0.0178882 -0.0981972 0.00525297 0 0 1.07895 0 0 
139 1 139 0.219825 0.540079 0 0 -0.312124 -0.0140901 -0.1046 0.00685405 0 0 0.93446 0 0 
140 1 140 0.219812 0.580101 0 0 -0.334359 -0.0169303 -0.112648 0.0184101 0 0 0.315979 0 0 
141 1 141 0.219797 0.620125 0 0 -0.3609 -0.0182775 -0.121601 0.00710954 0 0 0.316118 0 0 
142 1 142 0.219774 0.66015 0 0 -0.407388 -0.0367374 -0.142452 0.015728 0 0 0.367704 0 0 
143 1 143 0.219742 0.700176 0 0 -0.445234 -0.0411793 -0.156035 0.000517986 0 0 1.19185 0 0 
144 1 144 0.219702 0.740205 0 0 -0.471146 -0.0417923 -0.164554 0.0111696 0 0 1.39246 0 0 
145 1 145 0.219665 0.780235 0 0 -0.483785 -0.0328062 -0.165726 0.0291401 0 0 0.871302 0 0 
146 1 146 0.219632 0.82027 0 0 -0.484828 0.00160423 -0.155004 0.0380898 0 0 0.727471 0 0 
147 1 147 0.219606 0.860308 0 0 -0.484619 0.0202734 -0.148941 0.0498794 0 0 -0.100211 0 0 
148 1 148 0.219582 0.900349 0 0 -0.478206 0.0282311 -0.144321 0.0543996 0 0 -0.481498 0 0 
149 1 149 0.219559 0.940389 0 0 -0.456862 0.038432 -0.134214 0.0399168 0 0 -0.772934 0 0 
150 1 150 0.219528 0.980427 0 0 -0.435532 0.00680378 -0.13752 0.0187666 0 0 -1.07631 0 0 
151 1 151 0.259991 0.0199957 0 0 -0.060454 -0.083892 -0.0462582 -0.0342077 0 0 -0.151205 0 0 
152 1 152 0.259976 0.0599894 0 0 -0.079743 -0.055643 -0.0433793 -0.028187 0 0 0.0216273 0 0 
153 1 153 0.259968 0.0999879 0 0 -0.0891112 -0.0496433 -0.0444621 -0.0153506 0 0 0.150123 0 0 
154 1 154 0.259962 0.139988 0 0 -0.0808602 -0.0258101 -0.0341758 -0.0101624 0 0 0.168032 0 0 
155 1 155 0.259955 0.179991 0 0 -0.0859143 -0.0227085 -0.0348015 -0.00842367 0 0 -0.412901 0 0 
156 1 156 0.259944 0.219994 0 0 -0.093938 -0.0174824 -0.0356924 -0.0138009 0 0 -0.900038 0 0 
157 1 157 0.25993 0.259999 0 0 -0.107952 -0.0171871 -0.0400886 -0.0150603 0 0 -1.44383 0 0 
158 1 158 0.259911 0.300005 0 0 -0.127425 -0.0160673 -0.045978 -0.0267925 0 0 -1.59039 0 0 
159 1 159 0.259887 0.340014 0 0 -0.158778 -0.0160336 -0.056026 -0.0250994 0 0 -1.28589 0 0 
160 1 160 0.259862 0.380025 0 0 -0.192063 -0.0105233 -0.0649375 -0.0322469 0 0 -0.777234 0 0 
161 1 161 0.259835 0.42004 0 0 -0.223217 -0.00529366 -0.0732533 -0.0264352 0 0 -0.596096 0 0 
162 1 162 0.259807 0.460058 0 0 -0.24223 0.00620227 -0.0756697 -0.0231133 0 0 -0.465631 0 0 
163 1 163 0.259781 0.500079 0 0 -0.25913 0.0149021 -0.0783031 -0.0108146 0 0 -0.771084 0 0 
164 1 164 0.259755 0.540102 0 0 -0.296702 0.0139732 -0.0906499 -0.0128008 0 0 -0.648022 0 0 
165 1 165 0.259725 0.580128 0 0 -0.352304 -0.00404865 -0.114275 -0.000208462 0 0 -0.760061 0 0 
166 1 166 0.259691 0.620154 0 0 -0.389681 -0.00449987 -0.126417 -0.0117738 0 0 -0.779808 0 0 
167 1 167 0.259654 0.660183 0 0 -0.417519 -0.0158795 -0.139006 -0.000230065 0 0 -1.60919 0 0 
168 1 168 0.25962 0.700212 0 0 -0.422262 -0.0108974 -0.138928 -0.00830429 0 0 -1.78431 0 0 
169 1 169 0.259586 0.740243 0 0 -0.421117 -0.00492295 -0.136643 0.00145066 0 0 -1.86129 0 0 
170 1 170 0.259557 0.780275 0 0 -0.429858 0.00240739 -0.137095 0.016903 0 0 -1.95895 0 0 
171 1 171 0.259533 0.82031 0 0 -0.437649 0.0236706 -0.132764 0.0239346 0 0 -1.39645 0 0 
172 1 172 0.259513 0.860349 0 0 -0.433718 0.0431719 -0.125245 0.0400644 0 0 -1.77862 0 0 
173 1 173 0.259497 0.900389 0 0 -0.43273 0.0425933 -0.125108 0.0382979 0 0 -1.41805 0 0 
174 1 174 0.259479 0.940429 0 0 -0.427468 0.0470411 -0.122013 0.0315274 0 0 -1.72561 0 0 
175 1 175 0.259455 0.980466 0 0 -0.415993 0.0132689 -0.129168 0.0142843 0 0 -2.21494 0 0 
176 1 176 0.29999 0.0199951 0 0 -0.0672519 -0.0932908 -0.0514525 -0.0470962 0 0 -0.140149 0 0 
177 1 177 0.299973 0.0599885 0 0 -0.0811516 -0.0535516 -0.043163 -0.0321751 0 0 0.178592 0 0 
178 1 178 0.29996 0.0999876 0 0 -0.0920236 -0.0433925 -0.0433907 -0.0163803 0 0 -0.00575114 0 0 
179 1 179 0.299951 0.139989 0 0 -0.0944551 -0.0212193 -0.0370606 -0.0136313 0 0 0.093929 0 0 
180 1 180 0.299943 0.179994 0 0 -0.104135 -0.0176503 -0.0390212 -0.0130186 0 0 -0.0278897 0 0 
181 1 181 0.299931 0.219999 0 0 -0.108503 -0.0101074 -0.0379986 -0.0190716 0 0 -0.386139 0 0 
182 1 182 0.299915 0.260007 0 0 -0.122325 -0.0120496 -0.0430501 -0.0237082 0 0 -0.83414 0 0 
183 1 183 0.299892 0.300014 0 0 -0.145405 -0.0178384 -0.0523079 -0.0372028 0 0 -1.19917 0 0 
184 1 184 0.299865 0.340024 0 0 -0.172676 -0.0141798 -0.0598817 -0.0401682 0 0 -1.21936 0 0 
185 1 185 0.299834 0.380036 0 0 -0.206716 -0.0138164 -0.0706863 -0.0441843 0 0 -1.01097 0 0 
186 1 186 0.299804 0.420051 0 0 -0.235037 -0.00177727 -0.0759143 -0.0387776 0 0 -0.427036 0 0 
187 1 187 0.299775 0.46007 0 0 -0.281019 0.0010099 -0.0897798 -0.0368484 0 0 0.468202 0 0 
188 1 188 0.299748 0.500093 0 0 -0.336162 -0.0109574 -0.111321 -0.0220638 0 0 0.662162 0 0 
189 1 189 0.299723 0.540119 0 0 -0.363412 0.00832637 -0.113872 -0.0269748 0 0 0.932779 0 0 
190 1 190 0.299697 0.580149 0 0 -0.397961 -0.00665412 -0.129767 -0.0112557 0 0 0.278541 0 0 
191 1 191 0.299672 0.620179 0 0 -0.418474 0.00397359 -0.13294 -0.0227727 0 0 0.281697 0 0 
192 1 192 0.29964 0.660213 0 0 -0.461819 -0.013342 -0.152419 -0.0163296 0 0 0.425559 0 0 
193 1 193 0.299602 0.700246 0 0 -0.4962 -0.0298599 -0.168769 -0.0198008 0 0 0.792543 0 0 
194 1 194 0.299559 0.740279 0 0 -0.500142 -0.034522 -0.171534 -0.0101123 0 0 0.850987 0 0 
195 1 195 0.299519 0.780312 0 0 -0.493903 -0.0240176 -0.166153 -0.00107478 0 0 0.45848 0 0 
196 1 196 0.299483 0.820347 0 0 -0.483252 -0.00336188 -0.156092 0.00516628 0 0 0.407588 0 0 
197 1 197 0.299455 0.860384 0 0 -0.464422 0.017645 -0.143303 0.0250976 0 0 -0.425965 0 0 
198 1 198 0.299433 0.900422 0 0 -0.455889 0.0222427 -0.139081 0.0196424 0 0 -0.146807 0 0 
199 1 199 0.299413 0.94046 0 0 -0.435251 0.0320263 -0.129331 0.0174541 0 0 -0.990164 0 0 
200 1 200 0.299391 0.980496 0 0 -0.417674 0.00998488 -0.13076 0.00647737 0 0 -1.76442 0 0 
201 1 201 0.339984 0.0199954 0 0 -0.0614782 -0.0880959 -0.0479351 -0.0608741 0 0 -0.265005 0 0 
202 1 202 0.339959 0.059989 0 0 -0.080295 -0.0547358 -0.0432686 -0.0391805 0 0 0.139313 0 0 
203 1 203 0.339945 0.0999883 0 0 -0.0994518 -0.0430938 -0.0456773 -0.0214498 0 0 0.100957 0 0 
204 1 204 0.339936 0.139991 0 0 -0.101484 -0.0165161 -0.0378065 -0.0178564 0 0 0.24529 0 0 
205 1 205 0.339925 0.179997 0 0 -0.109798 -0.0122392 -0.0391028 -0.0184485 0 0 0.115384 0 0 
206 1 206 0.339911 0.220004 0 0 -0.116819 -0.00241565 -0.0382019 -0.0266597 0 0 -0.304105 0 0 
207 1 207 0.339893 0.260013 0 0 -0.135682 -0.0117219 -0.0472301 -0.0361383 0 0 -0.746064 0 0 
208 1 208 0.339867 0.300022 0 0 -0.156146 -0.0134805 -0.0543543 -0.0520296 0 0 -1.19757 0 0 
209 1 209 0.339834 0.340033 0 0 -0.183872 -0.0144885 -0.0635715 -0.0595996 0 0 -1.15705 0 0 
210 1 210 0.339797 0.380046 0 0 -0.220647 -0.0092084 -0.0736733 -0.0654663 0 0 -0.989566 0 0 
211 1 211 0.339758 0.420063 0 0 -0.261549 -0.0100617 -0.0870727 -0.0580752 0 0 -0.962743 0 0 
212 1 212 0.339719 0.460084 0 0 -0.279552 0.0158791 -0.0845316 -0.0591464 0 0 -0.720874 0 0 
213 1 213 0.33968 0.50011 0 0 -0.309547 0.0173277 -0.0936958 -0.042069 0 0 -1.06083 0 0 
214 1 214 0.339642 0.540138 0 0 -0.33845 0.0370174 -0.0966481 -0.0471858 0 0 -0.74134 0 0 
215 1 215 0.339601 0.580171 0 0 -0.393828 0.0224956 -0.11908 -0.0338053 0 0 -0.827249 0 0 
216 1 216 0.339557 0.620205 0 0 -0.437305 0.0119919 -0.136413 -0.037339 0 0 -1.09523 0 0 
217 1 217 0.339512 0.66024 0 0 -0.444411 0.0126342 -0.138487 -0.0273899 0 0 -1.8743 0 0 
218 1 218 0.339473 0.700275 0 0 -0.437042 0.00734082 -0.137821 -0.0249475 0 0 -2.605 0 0 
219 1 219 0.33944 0.740309 0 0 -0.426919 0.00416062 -0.135591 -0.0142341 0 0 -2.98292 0 0 
220 1 220 0.339411 0.780342 0 0 -0.418851 0.0104399 -0.130983 -0.0100369 0 0 -2.92987 0 0 
221 1 221 0.339385 0.820376 0 0 -0.416563 0.0115053 -0.129903 -0.00349471 0 0 -2.47712 0 0 
222 1 222 0.339366 0.86041 0 0 -0.406695 0.0319284 -0.120186 0.0123492 0 0 -2.6626 0 0 
223 1 223 0.339351 0.900447 0 0 -0.412441 0.0286211 -0.123089 0.00297362 0 0 -1.66409 0 0 
224 1 224 0.339336 0.940483 0 0 -0.41251 0.0297897 -0.122748 0.00772076 0 0 -2.13641 0 0 
225 1 225 0.33932 0.980517 0 0 -0.411276 0.0124067 -0.127927 -0.00340171 0 0 -2.25099 0 0 
226 1 226 0.379984 0.0199958 0 0 -0.0543744 -0.0784797 -0.0425719 -0.0730915 0 0 -0.075667 0 0 
227 1 227 0.379956 0.0599895 0 0 -0.0728739 -0.0551093 -0.0410073 -0.0476922 0 0 0.315243 0 0 
228 1 228 0.379935 0.0999886 0 0 -0.0879423 -0.035895 -0.0396789 -0.0289482 0 0 -0.049417 0 0 
229 1 229 0.379921 0.139991 0 0 -0.103924 -0.0156475 -0.0383105 -0.0260937 0 0 0.0341297 0 0 
230 1 230 0.379908 0.179998 0 0 -0.126413 -0.0148244 -0.0452599 -0.0269938 0 0 0.18948 0 0 
231 1 231 0.379893 0.220006 0 0 -0.140121 -0.00853027 -0.047637 -0.0354268 0 0 0.0956691 0 0 
232 1 232 0.379872 0.260016 0 0 -0.165131 -0.018096 -0.0587227 -0.0478179 0 0 -0.179519 0 0 
233 1 233 0.379843 0.300026 0 0 -0.19057 -0.0195001 -0.0673303 -0.0624879 0 0 -0.583805 0 0 
234 1 234 0.379806 0.340038 0 0 -0.216814 -0.022112 -0.0765884 -0.0706022 0 0 -0.853427 0 0 
235 1 235 0.379765 0.380052 0 0 -0.241212 -0.0110386 -0.0808599 -0.0798074 0 0 -0.900094 0 0 
236 1 236 0.379722 0.420071 0 0 -0.276239 -0.00493964 -0.0901421 -0.071342 0 0 -0.769478 0 0 
237 1 237 0.37968 0.460093 0 0 -0.319363 0.00658374 -0.100283 -0.0710771 0 0 -0.0236427 0 0 
238 1 238 0.379641 0.500121 0 0 -0.374849 0.00731666 -0.11786 -0.0568685 0 0 0.529413 0 0 
239 1 239 0.379602 0.540152 0 0 -0.419019 0.0106614 -0.130965 -0.0583542 0 0 0.723767 0 0 
240 1 240 0.379565 0.580187 0 0 -0.438267 0.0195977 -0.134276 -0.0472911 0 0 0.0933361 0 0 
241 1 241 0.37953 0.620225 0 0 -0.457512 0.0183749 -0.140854 -0.0533733 0 0 -0.0834423 0 0 
242 1 242 0.379492 0.660263 0 0 -0.489602 -0.00191039 -0.157674 -0.0431923 0 0 -0.311994 0 0 
243 1 243 0.379452 0.700299 0 0 -0.507208 -0.01914 -0.168865 -0.0398819 0 0 -0.348569 0 0 
244 1 244 0.379412 0.740334 0 0 -0.510907 -0.0361236 -0.175508 -0.029551 0 0 -0.577837 0 0 
245 1 245 0.379373 0.780367 0 0 -0.492584 -0.0247526 -0.165968 -0.0253195 0 0 -1.11206 0 0 
246 1 246 0.379339 0.820399 0 0 -0.478721 -0.0346884 -0.164706 -0.0157812 0 0 -1.16083 0 0 
247 1 247 0.379312 0.860431 0 0 -0.457467 -0.00777524 -0.149243 -0.00157688 0 0 -1.44256 0 0 
248 1 248 0.379291 0.900465 0 0 -0.454086 -0.0078277 -0.148171 -0.00970924 0 0 -0.730184 0 0 
249 1 249 0.379272 0.940498 0 0 -0.436099 0.0065576 -0.137786 -0.0032061 0 0 -1.50025 0 0 
250 1 250 0.379256 0.980532 0 0 -0.427503 0.00307141 -0.136136 -0.0129696 0 0 -1.35376 0 0 
251 1 251 0.419979 0.0199966 0 0 -0.0329167 -0.0598749 -0.0297278 -0.080252 0 0 -0.12147 0 0 
252 1 252 0.419944 0.0599908 0 0 -0.0539115 -0.0502267 -0.0333613 -0.0580822 0 0 0.147083 0 0 
253 1 253 0.419921 0.0999892 0 0 -0.0893422 -0.0394029 -0.0412518 -0.0397895 0 0 -0.0374286 0 0 
254 1 254 0.419904 0.139992 0 0 -0.115798 -0.0230321 -0.0444862 -0.0366758 0 0 0.206981 0 0 
255 1 255 0.419887 0.179998 0 0 -0.138848 -0.0191463 -0.0506342 -0.0357589 0 0 0.292106 0 0 
256 1 256 0.419868 0.220007 0 0 -0.157594 -0.0108159 -0.0539747 -0.0444316 0 0 0.176743 0 0 
257 1 257 0.419843 0.260018 0 0 -0.183708 -0.0207128 -0.0655223 -0.0575771 0 0 -0.154838 0 0 
258 1 258 0.41981 0.30003 0 0 -0.198587 -0.0095605 -0.0667177 -0.0734318 0 0 -0.529747 0 0 
259 1 259 0.419769 0.340044 0 0 -0.231208 -0.0195748 -0.0803946 -0.0840103 0 0 -1.12015 0 0 
260 1 260 0.419721 0.38006 0 0 -0.263393 -0.0128258 -0.0885525 -0.0942075 0 0 -1.35287 0 0 
261 1 261 0.41967 0.42008 0 0 -0.295598 -0.00193925 -0.0953935 -0.0880935 0 0 -1.3677 0 0 
262 1 262 0.419618 0.460105 0 0 -0.318548 0.0176394 -0.0964745 -0.0891784 0 0 -1.37366 0 0 
263 1 263 0.419566 0.500135 0 0 -0.336243 0.0368133 -0.0960012 -0.0776857 0 0 -1.39593 0 0 
264 1 264 0.419514 0.540168 0 0 -0.363864 0.04959 -0.100762 -0.0810318 0 0 -1.16655 0 0 
265 1 265 0.419461 0.580205 0 0 -0.413457 0.0398061 -0.119821 -0.0673167 0 0 -1.31665 0 0 
266 1 266 0.419409 0.620243 0 0 -0.44315 0.031968 -0.131877 -0.067352 0 0 -1.55941 0 0 
267 1 267 0.419361 0.660281 0 0 -0.43764 0.028392 -0.131255 -0.0514832 0 0 -2.72291 0 0 
268 1 268 0.419323 0.700317 0 0 -0.422255 0.0221437 -0.128321 -0.0422559 0 0 -3.99099 0 0 
269 1 269 0.419292 0.740352 0 0 -0.412124 0.00947827 -0.129132 -0.0335458 0 0 -4.59204 0 0 
270 1 270 0.419266 0.780384 0 0 -0.401432 0.012089 -0.124864 -0.0303641 0 0 -4.8218 0 0 
271 1 271 0.419244 0.820415 0 0 -0.406198 -0.0102231 -0.133558 -0.0232724 0 0 -4.31073 0 0 
272 1 272 0.419227 0.860445 0 0 -0.397785 0.00951777 -0.124527 -0.0132982 0 0 -3.78102 0 0 
273 1 273 0.419212 0.900477 0 0 -0.409691 -0.00260274 -0.132241 -0.017713 0 0 -2.5743 0 0 
274 1 274 0.419197 0.940509 0 0 -0.411765 0.00831764 -0.129409 -0.00868528 0 0 -2.59429 0 0 
275 1 275 0.419184 0.980541 0 0 -0.418221 0.00693898 -0.131914 -0.0186081 0 0 -1.48641 0 0 
276 1 276 0.459981 0.0199974 0 0 -0.0299978 -0.0483889 -0.0251123 -0.0840633 0 0 0.174074 0 0 
277 1 277 0.459945 0.059992 0 0 -0.0521274 -0.0529298 -0.0336561 -0.0690577 0 0 0.465259 0 0 
278 1 278 0.459914 0.0999896 0 0 -0.0778162 -0.0394343 -0.0375675 -0.0523226 0 0 -0.0667475 0 0 
279 1 279 0.459888 0.139992 0 0 -0.109356 -0.020077 -0.0414751 -0.0476191 0 0 0.0364297 0 0 
280 1 280 0.459867 0.179998 0 0 -0.150552 -0.0267586 -0.056829 -0.0431864 0 0 0.141135 0 0 
281 1 281 0.459844 0.220007 0 0 -0.176937 -0.0133629 -0.060994 -0.0532446 0 0 0.308889 0 0 
282 1 282 0.459815 0.260019 0 0 -0.217332 -0.027527 -0.0784936 -0.064649 0 0 0.0555263 0 0 
283 1 283 0.459778 0.300032 0 0 -0.243322 -0.0187868 -0.0840273 -0.0781304 0 0 -0.274586 0 0 
284 1 284 0.459733 0.340049 0 0 -0.269393 -0.0237575 -0.0939873 -0.0893239 0 0 -0.775797 0 0 
285 1 285 0.459682 0.380067 0 0 -0.285022 -0.0102024 -0.0946508 -0.0977039 0 0 -1.09254 0 0 
286 1 286 0.459627 0.420088 0 0 -0.309729 -0.00124032 -0.0997024 -0.0938144 0 0 -1.14189 0 0 
287 1 287 0.459573 0.460114 0 0 -0.349263 0.0117706 -0.108218 -0.0973411 0 0 -0.829802 0 0 
288 1 288 0.45952 0.500144 0 0 -0.405729 0.010149 -0.126867 -0.086205 0 0 -0.25813 0 0 
289 1 289 0.45947 0.540178 0 0 -0.43749 0.0180324 -0.134529 -0.086486 0 0 0.000751334 0 0 
290 1 290 0.459423 0.580216 0 0 -0.440918 0.0307128 -0.131556 -0.0776543 0 0 -0.446908 0 0 
291 1 291 0.459381 0.620254 0 0 -0.457206 0.0186244 -0.140672 -0.0783504 0 0 -0.869026 0 0 
292 1 292 0.459341 0.660293 0 0 -0.480496 0.0049742 -0.152537 -0.0681522 0 0 -1.27516 0 0 
293 1 293 0.459303 0.700329 0 0 -0.504842 -0.0178018 -0.167674 -0.0630321 0 0 -1.57168 0 0 
294 1 294 0.459265 0.740364 0 0 -0.514632 -0.0407751 -0.178198 -0.0508815 0 0 -2.02645 0 0 
295 1 295 0.459231 0.780396 0 0 -0.492726 -0.0337627 -0.168911 -0.0439486 0 0 -2.59052 0 0 
296 1 296 0.4592 0.820426 0 0 -0.485843 -0.0525018 -0.172718 -0.0345998 0 0 -2.4679 0 0 
297 1 297 0.459175 0.860455 0 0 -0.467902 -0.0286931 -0.159314 -0.0244261 0 0 -2.31537 0 0 
298 1 298 0.459153 0.900486 0 0 -0.463705 -0.0359823 -0.160307 -0.0250527 0 0 -1.61194 0 0 
299 1 299 0.459135 0.940516 0 0 -0.447671 -0.0136437 -0.147989 -0.0158041 0 0 -1.71875 0 0 
300 1 300 0.459119 0.980549 0 0 -0.440031 -0.00570021 -0.142974 -0.0229399 0 0 -0.445781 0 0 
301 1 301 0.499978 0.0199979 0 0 -0.0144656 -0.035793 -0.0160981 -0.0875666 0 0 0.117582 0 0 
302 1 302 0.499936 0.059993 0 0 -0.0367955 -0.0466456 -0.0267284 -0.0829215 0 0 0.359253 0 0 
303 1 303 0.499901 0.0999905 0 0 -0.0838376 -0.0430086 -0.0406454 -0.0693564 0 0 0.151243 0 0 
304 1 304 0.499871 0.139992 0 0 -0.125884 -0.0294938 -0.0497946 -0.0615516 0 0 0.400985 0 0 
305 1 305 0.499842 0.179999 0 0 -0.166602 -0.0327711 -0.0639051 -0.0553854 0 0 0.248381 0 0 
306 1 306 0.499813 0.220008 0 0 -0.199831 -0.0219536 -0.0710927 -0.0641945 0 0 0.377803 0 0 
307 1 307 0.499778 0.260021 0 0 -0.231318 -0.0203295 -0.0806702 -0.0755255 0 0 0.169998 0 0 
308 1 308 0.499737 0.300037 0 0 -0.252331 -0.0112836 -0.0845078 -0.0862816 0 0 -0.386663 0 0 
309 1 309 0.499688 0.340055 0 0 -0.272591 -0.0120237 -0.0912452 -0.0971063 0 0 -1.24512 0 0 
310 1 310 0.499632 0.380076 0 0 -0.290497 0.00176093 -0.0925654 -0.109879 0 0 -1.74132 0 0 
311 1 311 0.49957 0.4201 0 0 -0.324178 -0.00214646 -0.104629 -0.10854 0 0 -2.07963 0 0 
312 1 312 0.499506 0.460126 0 0 -0.336073 0.0206995 -0.10112 -0.113756 0 0 -2.23794 0 0 
313 1 313 0.499442 0.500157 0 0 -0.34225 0.0414657 -0.096441 -0.106902 0 0 -2.18848 0 0 
314 1 314 0.49938 0.540191 0 0 -0.367329 0.0456849 -0.103131 -0.106289 0 0 -2.12214 0 0 
315 1 315 0.499319 0.580228 0 0 -0.408389 0.0379973 -0.118774 -0.0977613 0 0 -2.02506 0 0 
316 1 316 0.499262 0.620264 0 0 -0.431971 0.0245458 -0.130666 -0.0909278 0 0 -2.37447 0 0 
317 1 317 0.499212 0.6603 0 0 -0.422308 0.0188693 -0.129387 -0.0720181 0 0 -3.5566 0 0 
318 1 318 0.499175 0.700334 0 0 -0.400201 0.0279127 -0.119387 -0.065912 0 0 -4.83297 0 0 
319 1 319 0.499146 0.740368 0 0 -0.398913 0.0125594 -0.123901 -0.0535205 0 0 -5.55359 0 0 
320 1 320 0.499124 0.7804 0 0 -0.399612 0.0113576 -0.124515 -0.0468851 0 0 -5.68982 0 0 
321 1 321 0.499105 0.820431 0 0 -0.412544 -0.0123518 -0.136277 -0.040932 0 0 -4.88791 0 0 
322 1 322 0.499089 0.860461 0 0 -0.406798 -0.0018592 -0.131069 -0.0282938 0 0 -4.21809 0 0 
323 1 323 0.499074 0.900491 0 0 -0.413241 -0.0118114 -0.136332 -0.0291881 0 0 -3.11391 0 0 
324 1 324 0.499059 0.940522 0 0 -0.41611 0.000955538 -0.13316 -0.0198221 0 0 -2.47508 0 0 
325 1 325 0.499046 0.980554 0 0 -0.416499 0.00281116 -0.132681 -0.0223232 0 0 -0.745026 0 0 