ITEM: TIMESTEP
0
ITEM: NUMBER OF ATOMS
6875
ITEM: BOX BOUNDS sm sm sm
0 4
0 2
0 0
ITEM: ATOMS id type tag x y z damage s11 s22 s33 s12 s13 s23 vx T ienergy 
1 1 1 0.0199941 0.0199962 0 0 -0.0953714 -0.0948142 -0.0609566 -0.0341351 0 0 -0.15611 0 0 
2 1 2 0.0199877 0.0599898 0 0 -0.172291 -0.10424 -0.0886473 -0.04906 0 0 -0.156541 0 0 
3 1 3 0.0199854 0.0999874 0 0 -0.215988 -0.1162 -0.106511 -0.05981 0 0 -0.0519414 0 0 
4 1 4 0.0199848 0.139985 0 0 -0.246666 -0.126983 -0.119821 -0.0658845 0 0 0.106062 0 0 
5 1 5 0.0199831 0.179984 0 0 -0.258419 -0.130029 -0.124569 -0.0693558 0 0 -0.0500644 0 0 
6 1 6 0.0199826 0.219982 0 0 -0.271669 -0.138428 -0.131519 -0.0780301 0 0 0.107722 0 0 
7 1 7 0.0199817 0.259982 0 0 -0.277372 -0.136762 -0.132814 -0.0800395 0 0 0.116223 0 0 
8 1 8 0.0199816 0.29998 0 0 -0.284051 -0.137019 -0.135038 -0.0864655 0 0 0.253084 0 0 
9 1 9 0.0199793 0.339981 0 0 -0.295887 -0.131944 -0.137209 -0.0839959 0 0 0.126287 0 0 
10 1 10 0.0199781 0.379982 0 0 -0.314388 -0.139957 -0.145722 -0.0794899 0 0 0.00119101 0 0 
11 1 11 0.019975 0.419985 0 0 -0.333557 -0.144458 -0.153323 -0.0719746 0 0 -0.0172171 0 0 
12 1 12 0.0199711 0.459986 0 0 -0.361551 -0.159466 -0.167139 -0.065224 0 0 -0.228251 0 0 
13 1 13 0.0199659 0.499989 0 0 -0.381794 -0.171218 -0.177419 -0.0546658 0 0 -0.534734 0 0 
14 1 14 0.0199626 0.53999 0 0 -0.393156 -0.176245 -0.182688 -0.0500286 0 0 -0.615951 0 0 
15 1 15 0.0199565 0.579992 0 0 -0.405632 -0.181863 -0.188504 -0.042077 0 0 -0.271756 0 0 
16 1 16 0.0199503 0.619992 0 0 -0.412105 -0.182806 -0.190889 -0.0348255 0 0 -0.267141 0 0 
17 1 17 0.0199443 0.659994 0 0 -0.408676 -0.181162 -0.189259 -0.023663 0 0 -0.601565 0 0 
18 1 18 0.0199448 0.699995 0 0 -0.405567 -0.174268 -0.186045 -0.0177255 0 0 -1.12521 0 0 
19 1 19 0.0199472 0.739999 0 0 -0.406466 -0.17352 -0.186093 -0.0018955 0 0 -1.4298 0 0 
20 1 20 0.0199543 0.780001 0 0 -0.401719 -0.166369 -0.182269 0.00960556 0 0 -1.35841 0 0 
21 1 21 0.019958 0.820007 0 0 -0.40808 -0.166314 -0.184294 0.0266845 0 0 -0.977583 0 0 
22 1 22 0.0199648 0.86001 0 0 -0.398431 -0.163033 -0.180139 0.0490318 0 0 -1.13754 0 0 
23 1 23 0.0199676 0.900016 0 0 -0.381835 -0.148237 -0.170051 0.064215 0 0 -0.765431 0 0 
24 1 24 0.0199718 0.94002 0 0 -0.373764 -0.137884 -0.164141 0.0903637 0 0 -0.5209 0 0 
25 1 25 0.0199631 0.980035 0 0 -0.444555 -0.11232 -0.188649 0.0919481 0 0 -0.519018 0 0 
26 1 26 0.0599904 0.0199911 0 0 -0.107868 -0.165269 -0.0875635 -0.049564 0 0 -0.207593 0 0 
27 1 27 0.0599757 0.059975 0 0 -0.161525 -0.148481 -0.0993932 -0.0445198 0 0 -0.198597 0 0 
28 1 28 0.0599639 0.0999667 0 0 -0.203003 -0.136771 -0.108944 -0.0483311 0 0 -0.19982 0 0 
29 1 29 0.0599575 0.13996 0 0 -0.235797 -0.147637 -0.122956 -0.0520493 0 0 0.165551 0 0 
30 1 30 0.0599539 0.179956 0 0 -0.252301 -0.144462 -0.12724 -0.0523895 0 0 0.0598709 0 0 
31 1 31 0.0599528 0.21995 0 0 -0.269214 -0.16048 -0.137815 -0.0642679 0 0 0.286786 0 0 
32 1 32 0.0599496 0.259947 0 0 -0.274653 -0.14484 -0.13454 -0.0648501 0 0 0.0824323 0 0 
33 1 33 0.0599485 0.299944 0 0 -0.294813 -0.154735 -0.144188 -0.0752738 0 0 0.474921 0 0 
34 1 34 0.0599439 0.339944 0 0 -0.306152 -0.128005 -0.139246 -0.0803376 0 0 0.612284 0 0 
35 1 35 0.0599409 0.379946 0 0 -0.336769 -0.143134 -0.153935 -0.0783168 0 0 0.649902 0 0 
36 1 36 0.0599372 0.419951 0 0 -0.349923 -0.128438 -0.153438 -0.0774854 0 0 0.916424 0 0 
37 1 37 0.0599363 0.459955 0 0 -0.370028 -0.147587 -0.166051 -0.0693728 0 0 1.0479 0 0 
38 1 38 0.0599357 0.49996 0 0 -0.382159 -0.147195 -0.169823 -0.0618336 0 0 1.54512 0 0 
39 1 39 0.0599372 0.539964 0 0 -0.402343 -0.164945 -0.182011 -0.0514527 0 0 1.44593 0 0 
40 1 40 0.0599389 0.57997 0 0 -0.411695 -0.159055 -0.183124 -0.0478454 0 0 1.49179 0 0 
41 1 41 0.0599444 0.619975 0 0 -0.420965 -0.168386 -0.189103 -0.0312741 0 0 0.88951 0 0 
42 1 42 0.0599491 0.659982 0 0 -0.422816 -0.156247 -0.185795 -0.0262867 0 0 1.23892 0 0 
43 1 43 0.0599495 0.699989 0 0 -0.432321 -0.164378 -0.191465 -0.015147 0 0 1.29158 0 0 
44 1 44 0.0599451 0.739997 0 0 -0.422389 -0.138977 -0.18011 -0.00765758 0 0 1.55942 0 0 
45 1 45 0.0599394 0.780007 0 0 -0.434335 -0.151865 -0.18809 0.00528875 0 0 1.26085 0 0 
46 1 46 0.0599333 0.820017 0 0 -0.411625 -0.116207 -0.169331 0.0120144 0 0 1.22636 0 0 
47 1 47 0.0599293 0.860029 0 0 -0.420776 -0.129861 -0.176666 0.0378833 0 0 0.495673 0 0 
48 1 48 0.0599283 0.900041 0 0 -0.393934 -0.0963567 -0.157267 0.0474826 0 0 0.261183 0 0 
49 1 49 0.0599238 0.94006 0 0 -0.413085 -0.0571106 -0.150822 0.0612164 0 0 0.124031 0 0 
50 1 50 0.0599064 0.980085 0 0 -0.346294 0.00680001 -0.108863 0.0169595 0 0 -0.676591 0 0 
51 1 51 0.0999835 0.019989 0 0 -0.113014 -0.192099 -0.0978379 -0.0655738 0 0 -0.231966 0 0 
52 1 52 0.0999576 0.0599691 0 0 -0.152825 -0.179216 -0.106472 -0.053819 0 0 -0.0730072 0 0 
53 1 53 0.0999408 0.0999549 0 0 -0.193749 -0.162789 -0.114326 -0.0483258 0 0 0.024135 0 0 
54 1 54 0.0999306 0.139944 0 0 -0.237939 -0.176539 -0.132927 -0.0478562 0 0 0.174092 0 0 
55 1 55 0.0999233 0.179935 0 0 -0.253769 -0.163103 -0.1337 -0.0437641 0 0 -0.148469 0 0 
56 1 56 0.0999195 0.219928 0 0 -0.278408 -0.185985 -0.148961 -0.0513557 0 0 0.0809068 0 0 
57 1 57 0.0999149 0.259921 0 0 -0.279948 -0.16053 -0.141283 -0.0559119 0 0 0.252927 0 0 
58 1 58 0.0999101 0.299916 0 0 -0.307401 -0.175975 -0.155058 -0.0666241 0 0 0.653473 0 0 
59 1 59 0.0999011 0.339914 0 0 -0.313994 -0.139336 -0.145409 -0.0782048 0 0 0.72715 0 0 
60 1 60 0.099893 0.379917 0 0 -0.33836 -0.14498 -0.155044 -0.0736263 0 0 0.781663 0 0 
61 1 61 0.0998841 0.419921 0 0 -0.348008 -0.11989 -0.150081 -0.0814467 0 0 1.1612 0 0 
62 1 62 0.0998747 0.459928 0 0 -0.374269 -0.137023 -0.164022 -0.0683371 0 0 0.727673 0 0 
63 1 63 0.0998661 0.499936 0 0 -0.384078 -0.128232 -0.16435 -0.0706554 0 0 0.734324 0 0 
64 1 64 0.0998577 0.539945 0 0 -0.40739 -0.14251 -0.176425 -0.0526582 0 0 0.177819 0 0 
65 1 65 0.0998492 0.579953 0 0 -0.415205 -0.139715 -0.178036 -0.052886 0 0 0.612063 0 0 
66 1 66 0.0998397 0.619961 0 0 -0.428612 -0.148644 -0.185216 -0.0296904 0 0 0.0524914 0 0 
67 1 67 0.0998339 0.65997 0 0 -0.423752 -0.13438 -0.17907 -0.0324208 0 0 -0.119699 0 0 
68 1 68 0.0998316 0.699981 0 0 -0.427128 -0.135717 -0.180586 -0.0159631 0 0 -1.16251 0 0 
69 1 69 0.0998354 0.739992 0 0 -0.415257 -0.115038 -0.170128 -0.0149438 0 0 -1.39799 0 0 
70 1 70 0.09984 0.780006 0 0 -0.4132 -0.107897 -0.167174 -0.00342802 0 0 -1.22458 0 0 
71 1 71 0.0998457 0.820021 0 0 -0.405876 -0.0915861 -0.159579 0.00453118 0 0 -1.06094 0 0 
72 1 72 0.0998517 0.860038 0 0 -0.391077 -0.0726197 -0.148742 0.0181494 0 0 -0.88389 0 0 
73 1 73 0.0998567 0.900059 0 0 -0.403574 -0.0490967 -0.145191 0.029373 0 0 -1.03859 0 0 
74 1 74 0.0998544 0.940083 0 0 -0.376085 -0.0101391 -0.123857 0.0075173 0 0 -1.01615 0 0 
75 1 75 0.0998471 0.980109 0 0 -0.330427 -0.0188113 -0.111988 0.0173588 0 0 -1.8399 0 0 
76 1 76 0.139983 0.019988 0 0 -0.117244 -0.207908 -0.104267 -0.0777159 0 0 -0.063636 0 0 
77 1 77 0.139952 0.0599649 0 0 -0.15404 -0.200092 -0.113561 -0.0664559 0 0 0.0154923 0 0 
78 1 78 0.139926 0.0999469 0 0 -0.192452 -0.190358 -0.12277 -0.0600116 0 0 -0.0378586 0 0 
79 1 79 0.139908 0.139932 0 0 -0.230263 -0.193627 -0.135955 -0.0488251 0 0 0.177873 0 0 
80 1 80 0.139897 0.17992 0 0 -0.252047 -0.18092 -0.138868 -0.0420051 0 0 0.120359 0 0 
81 1 81 0.139891 0.21991 0 0 -0.277852 -0.197752 -0.152561 -0.0440027 0 0 0.302716 0 0 
82 1 82 0.139884 0.259901 0 0 -0.285772 -0.18161 -0.149922 -0.0505399 0 0 0.555719 0 0 
83 1 83 0.139877 0.299893 0 0 -0.307108 -0.183476 -0.157377 -0.0598517 0 0 1.01492 0 0 
84 1 84 0.139865 0.33989 0 0 -0.317432 -0.158707 -0.152739 -0.0720341 0 0 1.38589 0 0 
85 1 85 0.139854 0.37989 0 0 -0.341632 -0.150195 -0.157773 -0.0684864 0 0 1.53561 0 0 
86 1 86 0.139844 0.419894 0 0 -0.358683 -0.131228 -0.157153 -0.0770979 0 0 1.79841 0 0 
87 1 87 0.139836 0.4599 0 0 -0.379353 -0.128011 -0.16276 -0.063627 0 0 1.60788 0 0 
88 1 88 0.139832 0.49991 0 0 -0.399531 -0.12576 -0.16852 -0.0676499 0 0 2.1657 0 0 
89 1 89 0.139827 0.53992 0 0 -0.418134 -0.127619 -0.175093 -0.0549932 0 0 1.98318 0 0 
90 1 90 0.139826 0.579932 0 0 -0.43105 -0.132456 -0.180795 -0.0551633 0 0 1.88456 0 0 
91 1 91 0.139829 0.619943 0 0 -0.438776 -0.136639 -0.184625 -0.0388412 0 0 1.20147 0 0 
92 1 92 0.139832 0.659957 0 0 -0.448664 -0.132913 -0.186605 -0.0412258 0 0 1.55558 0 0 
93 1 93 0.139831 0.69997 0 0 -0.450012 -0.125885 -0.184784 -0.0305233 0 0 1.4988 0 0 
94 1 94 0.139826 0.739985 0 0 -0.452867 -0.118101 -0.1832 -0.0275562 0 0 1.67855 0 0 
95 1 95 0.13982 0.780001 0 0 -0.446214 -0.0977561 -0.174527 -0.0210731 0 0 1.66211 0 0 
96 1 96 0.139814 0.820021 0 0 -0.431951 -0.0818259 -0.164823 -0.00748133 0 0 1.2823 0 0 
97 1 97 0.139811 0.860041 0 0 -0.429252 -0.0633568 -0.158023 0.000500236 0 0 1.08262 0 0 
98 1 98 0.139807 0.900066 0 0 -0.405303 -0.0229116 -0.137336 -0.00281516 0 0 0.325268 0 0 
99 1 99 0.139803 0.940092 0 0 -0.382586 -0.0257081 -0.130954 -0.000493098 0 0 -0.408476 0 0 
100 1 100 0.139799 0.980118 0 0 -0.337988 0.00458358 -0.106912 0.00501117 0 0 -1.47792 0 0 
101 1 101 0.179978 0.0199872 0 0 -0.117285 -0.219022 -0.107835 -0.0898902 0 0 -0.0784095 0 0 
102 1 102 0.179938 0.0599618 0 0 -0.151725 -0.217694 -0.118467 -0.0811393 0 0 0.00432795 0 0 
103 1 103 0.179908 0.0999409 0 0 -0.188767 -0.207937 -0.127233 -0.0724582 0 0 0.303497 0 0 
104 1 104 0.179886 0.139923 0 0 -0.2217 -0.20402 -0.136545 -0.0558658 0 0 0.545694 0 0 
105 1 105 0.17987 0.179909 0 0 -0.246882 -0.196168 -0.142107 -0.047251 0 0 0.390658 0 0 
106 1 106 0.17986 0.219896 0 0 -0.275314 -0.20448 -0.153903 -0.0441049 0 0 0.469714 0 0 
107 1 107 0.17985 0.259886 0 0 -0.294613 -0.198154 -0.158072 -0.051876 0 0 0.862694 0 0 
108 1 108 0.179839 0.299877 0 0 -0.316692 -0.197034 -0.164812 -0.0600551 0 0 1.27833 0 0 
109 1 109 0.179823 0.339872 0 0 -0.328415 -0.179452 -0.162934 -0.073815 0 0 1.43545 0 0 
110 1 110 0.179806 0.37987 0 0 -0.346751 -0.163648 -0.163742 -0.0739517 0 0 1.48521 0 0 
111 1 111 0.179789 0.419873 0 0 -0.358813 -0.138627 -0.159573 -0.0794513 0 0 1.4779 0 0 
112 1 112 0.179773 0.459879 0 0 -0.373837 -0.127837 -0.160932 -0.0715435 0 0 1.12196 0 0 
113 1 113 0.179758 0.499889 0 0 -0.383092 -0.107722 -0.157446 -0.0757236 0 0 0.864544 0 0 
114 1 114 0.179745 0.539901 0 0 -0.3999 -0.119698 -0.16669 -0.0631953 0 0 0.366217 0 0 
115 1 115 0.179733 0.579913 0 0 -0.409532 -0.106717 -0.165614 -0.0657834 0 0 0.740406 0 0 
116 1 116 0.179721 0.619926 0 0 -0.431416 -0.126492 -0.179002 -0.0457542 0 0 0.290455 0 0 
117 1 117 0.179712 0.659939 0 0 -0.430735 -0.110262 -0.173567 -0.0512795 0 0 0.156485 0 0 
118 1 118 0.179709 0.699954 0 0 -0.430274 -0.107436 -0.172515 -0.0322673 0 0 -1.04285 0 0 
119 1 119 0.179712 0.739971 0 0 -0.417905 -0.0826994 -0.160593 -0.0390398 0 0 -1.01725 0 0 
120 1 120 0.179715 0.77999 0 0 -0.418498 -0.0730785 -0.157695 -0.0263872 0 0 -0.925654 0 0 
121 1 121 0.179722 0.820012 0 0 -0.408876 -0.0465807 -0.14609 -0.0194075 0 0 -0.831303 0 0 
122 1 122 0.179727 0.860037 0 0 -0.404081 -0.0311544 -0.139593 -0.0168973 0 0 -0.441081 0 0 
123 1 123 0.179732 0.900063 0 0 -0.390783 -0.0185971 -0.131289 -0.00788882 0 0 -1.07759 0 0 
124 1 124 0.179735 0.94009 0 0 -0.370582 -0.00305553 -0.119836 -0.013978 0 0 -1.4015 0 0 
125 1 125 0.179739 0.980117 0 0 -0.345577 -0.00206867 -0.11149 0.00187609 0 0 -2.22664 0 0 
126 1 126 0.219978 0.0199857 0 0 -0.131161 -0.241369 -0.119463 -0.101117 0 0 0.167209 0 0 
127 1 127 0.219936 0.059958 0 0 -0.160889 -0.234735 -0.126875 -0.0945052 0 0 0.432712 0 0 
128 1 128 0.219897 0.0999348 0 0 -0.185684 -0.222336 -0.130861 -0.08431 0 0 0.59024 0 0 
129 1 129 0.219867 0.139915 0 0 -0.211337 -0.21063 -0.135339 -0.0647493 0 0 0.805894 0 0 
130 1 130 0.219848 0.179898 0 0 -0.243676 -0.210005 -0.14552 -0.0559311 0 0 0.723979 0 0 
131 1 131 0.219834 0.219884 0 0 -0.272229 -0.212317 -0.155428 -0.049691 0 0 0.813263 0 0 
132 1 132 0.219821 0.259872 0 0 -0.284918 -0.201283 -0.155959 -0.0574922 0 0 1.2781 0 0 
133 1 133 0.219806 0.299861 0 0 -0.308289 -0.208963 -0.165941 -0.0676775 0 0 1.57485 0 0 
134 1 134 0.219788 0.339853 0 0 -0.321472 -0.188152 -0.163498 -0.0807681 0 0 1.79226 0 0 
135 1 135 0.219768 0.379849 0 0 -0.344891 -0.178573 -0.167943 -0.0855493 0 0 2.0288 0 0 
136 1 136 0.219749 0.419849 0 0 -0.357802 -0.147056 -0.161961 -0.0862851 0 0 1.85397 0 0 
137 1 137 0.219735 0.459854 0 0 -0.378829 -0.138315 -0.165909 -0.0804996 0 0 1.77662 0 0 
138 1 138 0.219723 0.499863 0 0 -0.39466 -0.112194 -0.162606 -0.0841269 0 0 2.11154 0 0 
139 1 139 0.219714 0.539875 0 0 -0.422007 -0.126363 -0.17594 -0.0696195 0 0 1.70785 0 0 
140 1 140 0.219709 0.579888 0 0 -0.426742 -0.112703 -0.173072 -0.0737718 0 0 1.77149 0 0 
141 1 141 0.219708 0.619903 0 0 -0.43769 -0.115226 -0.177401 -0.0540912 0 0 1.07314 0 0 
142 1 142 0.219708 0.659919 0 0 -0.456397 -0.117575 -0.184165 -0.063305 0 0 1.7747 0 0 
143 1 143 0.219705 0.699936 0 0 -0.47496 -0.112324 -0.188444 -0.041762 0 0 1.6422 0 0 
144 1 144 0.219699 0.739955 0 0 -0.484731 -0.106816 -0.189814 -0.0484052 0 0 2.13383 0 0 
145 1 145 0.219691 0.779976 0 0 -0.473302 -0.0816893 -0.178065 -0.034304 0 0 2.0465 0 0 
146 1 146 0.219686 0.82 0 0 -0.463175 -0.0652161 -0.169514 -0.0283654 0 0 1.70032 0 0 
147 1 147 0.219682 0.860026 0 0 -0.445718 -0.0366217 -0.154722 -0.0280372 0 0 1.6029 0 0 
148 1 148 0.219681 0.900054 0 0 -0.426952 -0.0310977 -0.146916 -0.0167082 0 0 0.249128 0 0 
149 1 149 0.219682 0.940081 0 0 -0.40076 -0.0191588 -0.134695 -0.0208778 0 0 -0.370426 0 0 
150 1 150 0.219686 0.98011 0 0 -0.383203 -0.000506951 -0.123068 -0.00557184 0 0 -1.41698 0 0 
151 1 151 0.259973 0.0199843 0 0 -0.139026 -0.26464 -0.129462 -0.112438 0 0 0.07928 0 0 
152 1 152 0.259923 0.0599539 0 0 -0.160834 -0.248003 -0.131117 -0.106904 0 0 0.475119 0 0 
153 1 153 0.259881 0.0999288 0 0 -0.186049 -0.235831 -0.135307 -0.0969887 0 0 0.899822 0 0 
154 1 154 0.259849 0.139906 0 0 -0.206002 -0.22185 -0.137225 -0.0774155 0 0 1.17185 0 0 
155 1 155 0.259824 0.179888 0 0 -0.228724 -0.217106 -0.142998 -0.0704654 0 0 1.11255 0 0 
156 1 156 0.259806 0.219871 0 0 -0.250426 -0.210732 -0.147914 -0.06033 0 0 1.21447 0 0 
157 1 157 0.25979 0.259858 0 0 -0.275913 -0.209692 -0.155764 -0.0691772 0 0 1.60393 0 0 
158 1 158 0.259771 0.299845 0 0 -0.308272 -0.222012 -0.170123 -0.0800161 0 0 1.79418 0 0 
159 1 159 0.259748 0.339836 0 0 -0.321222 -0.200558 -0.167396 -0.091243 0 0 1.89652 0 0 
160 1 160 0.259723 0.379829 0 0 -0.342416 -0.195459 -0.172571 -0.0995628 0 0 1.83881 0 0 
161 1 161 0.259697 0.419827 0 0 -0.354501 -0.16003 -0.165071 -0.101534 0 0 1.42204 0 0 
162 1 162 0.259673 0.459831 0 0 -0.378061 -0.143638 -0.167379 -0.0986334 0 0 0.915694 0 0 
163 1 163 0.25965 0.499839 0 0 -0.381505 -0.115567 -0.15947 -0.0982983 0 0 0.548531 0 0 
164 1 164 0.259632 0.539851 0 0 -0.383867 -0.0989444 -0.154884 -0.0848573 0 0 0.112357 0 0 
165 1 165 0.259615 0.579865 0 0 -0.40744 -0.100088 -0.16282 -0.0872272 0 0 0.60031 0 0 
166 1 166 0.259599 0.61988 0 0 -0.425847 -0.0987716 -0.168309 -0.0623324 0 0 0.10385 0 0 
167 1 167 0.259587 0.659897 0 0 -0.428512 -0.0910161 -0.166671 -0.0708012 0 0 0.334078 0 0 
168 1 168 0.259579 0.699914 0 0 -0.428019 -0.0834284 -0.164074 -0.0466583 0 0 -0.705734 0 0 
169 1 169 0.25958 0.739935 0 0 -0.42682 -0.0642544 -0.15753 -0.054778 0 0 -0.586146 0 0 
170 1 170 0.259582 0.779958 0 0 -0.437833 -0.0610418 -0.160035 -0.0389122 0 0 -0.692707 0 0 
171 1 171 0.259588 0.819983 0 0 -0.435166 -0.0402962 -0.152509 -0.0356585 0 0 -0.633012 0 0 
172 1 172 0.259594 0.860011 0 0 -0.42636 -0.0274178 -0.14555 -0.031093 0 0 -0.405902 0 0 
173 1 173 0.259602 0.900039 0 0 -0.410499 -0.0176048 -0.1373 -0.0173003 0 0 -1.2783 0 0 
174 1 174 0.259611 0.940068 0 0 -0.40023 -0.0089336 -0.131241 -0.0251067 0 0 -1.23 0 0 
175 1 175 0.259618 0.980097 0 0 -0.383542 0.00497862 -0.121413 -0.0065044 0 0 -2.03472 0 0 
176 1 176 0.299973 0.0199825 0 0 -0.156384 -0.293365 -0.144261 -0.122992 0 0 0.33402 0 0 
177 1 177 0.299921 0.0599492 0 0 -0.1712 -0.26968 -0.141408 -0.114901 0 0 0.947522 0 0 
178 1 178 0.299873 0.099921 0 0 -0.182615 -0.253842 -0.139987 -0.10872 0 0 1.21476 0 0 
179 1 179 0.299835 0.139896 0 0 -0.194865 -0.233421 -0.137362 -0.0898896 0 0 1.37726 0 0 
180 1 180 0.299807 0.179875 0 0 -0.217598 -0.227434 -0.142741 -0.0857263 0 0 1.56343 0 0 
181 1 181 0.299785 0.219856 0 0 -0.240285 -0.213917 -0.145682 -0.0758604 0 0 1.57645 0 0 
182 1 182 0.299764 0.259841 0 0 -0.270852 -0.222872 -0.158373 -0.0849348 0 0 1.72992 0 0 
183 1 183 0.299741 0.299826 0 0 -0.288932 -0.216664 -0.162188 -0.0916225 0 0 1.88344 0 0 
184 1 184 0.299715 0.339815 0 0 -0.311607 -0.210241 -0.167411 -0.103898 0 0 2.01781 0 0 
185 1 185 0.299687 0.379806 0 0 -0.345234 -0.210331 -0.178247 -0.110674 0 0 1.994 0 0 
186 1 186 0.299659 0.419801 0 0 -0.360683 -0.179015 -0.173154 -0.109836 0 0 1.76766 0 0 
187 1 187 0.299635 0.459802 0 0 -0.379801 -0.153007 -0.170948 -0.107252 0 0 1.72172 0 0 
188 1 188 0.299616 0.499809 0 0 -0.403354 -0.13306 -0.17211 -0.10097 0 0 1.76812 0 0 
189 1 189 0.299602 0.53982 0 0 -0.419777 -0.117314 -0.172322 -0.0892691 0 0 1.59303 0 0 
190 1 190 0.299591 0.579835 0 0 -0.42689 -0.102281 -0.169772 -0.0980747 0 0 1.75584 0 0 
191 1 191 0.299584 0.619852 0 0 -0.445758 -0.104174 -0.176441 -0.0753607 0 0 1.03302 0 0 
192 1 192 0.29958 0.659871 0 0 -0.469097 -0.0970223 -0.181641 -0.088068 0 0 1.98474 0 0 
193 1 193 0.299572 0.699891 0 0 -0.505652 -0.112314 -0.198304 -0.0649256 0 0 2.02292 0 0 
194 1 194 0.299563 0.739914 0 0 -0.514954 -0.0976683 -0.196586 -0.0705717 0 0 2.48929 0 0 
195 1 195 0.299553 0.779937 0 0 -0.511313 -0.0865433 -0.191839 -0.0540526 0 0 2.18555 0 0 
196 1 196 0.299546 0.819964 0 0 -0.508131 -0.0706649 -0.185709 -0.0480304 0 0 1.70231 0 0 
197 1 197 0.299544 0.859991 0 0 -0.491594 -0.0512135 -0.174151 -0.0374514 0 0 1.34308 0 0 
198 1 198 0.299547 0.900022 0 0 -0.467961 -0.0334431 -0.160844 -0.0196577 0 0 0.322713 0 0 
199 1 199 0.299552 0.940051 0 0 -0.448834 -0.0219434 -0.151026 -0.0265343 0 0 0.193836 0 0 
200 1 200 0.299559 0.980083 0 0 -0.423104 -0.00350559 -0.136837 -0.00527086 0 0 -0.859978 0 0 
201 1 201 0.339968 0.0199811 0 0 -0.158223 -0.313754 -0.1514 -0.132484 0 0 0.201978 0 0 
202 1 202 0.33991 0.0599444 0 0 -0.169533 -0.291444 -0.147863 -0.122924 0 0 0.693678 0 0 
203 1 203 0.339861 0.0999125 0 0 -0.18659 -0.281177 -0.150043 -0.118187 0 0 1.22249 0 0 
204 1 204 0.339822 0.139884 0 0 -0.192952 -0.250675 -0.142289 -0.0999858 0 0 1.54583 0 0 
205 1 205 0.339789 0.17986 0 0 -0.211262 -0.24241 -0.145517 -0.0977864 0 0 1.70435 0 0 
206 1 206 0.339761 0.219839 0 0 -0.225709 -0.21957 -0.142819 -0.0898494 0 0 1.74578 0 0 
207 1 207 0.339737 0.259822 0 0 -0.256976 -0.225536 -0.154774 -0.0978905 0 0 1.99246 0 0 
208 1 208 0.33971 0.299806 0 0 -0.282885 -0.217675 -0.16057 -0.103783 0 0 2.08914 0 0 
209 1 209 0.339679 0.339794 0 0 -0.312526 -0.221877 -0.171444 -0.118172 0 0 2.06185 0 0 
210 1 210 0.339644 0.379783 0 0 -0.334571 -0.212884 -0.175638 -0.124313 0 0 1.80769 0 0 
211 1 211 0.339608 0.419778 0 0 -0.356241 -0.187556 -0.174466 -0.123585 0 0 1.45308 0 0 
212 1 212 0.339574 0.459777 0 0 -0.381 -0.16824 -0.17622 -0.121484 0 0 1.00191 0 0 
213 1 213 0.339543 0.499783 0 0 -0.385356 -0.130971 -0.165651 -0.114511 0 0 0.451107 0 0 
214 1 214 0.339519 0.539793 0 0 -0.399386 -0.113958 -0.164688 -0.102622 0 0 0.0558343 0 0 
215 1 215 0.339496 0.579807 0 0 -0.413404 -0.0966277 -0.163622 -0.107008 0 0 0.520711 0 0 
216 1 216 0.339474 0.619823 0 0 -0.429358 -0.0904914 -0.166777 -0.0864266 0 0 0.289369 0 0 
217 1 217 0.339455 0.659842 0 0 -0.435527 -0.0770931 -0.164453 -0.0944643 0 0 0.401026 0 0 
218 1 218 0.339443 0.699863 0 0 -0.4362 -0.0676907 -0.161649 -0.0731803 0 0 -0.412064 0 0 
219 1 219 0.339439 0.739886 0 0 -0.446482 -0.0614213 -0.162937 -0.0759288 0 0 -0.438244 0 0 
220 1 220 0.339439 0.779911 0 0 -0.455669 -0.0529938 -0.16318 -0.0595352 0 0 -0.675652 0 0 
221 1 221 0.339443 0.819939 0 0 -0.45591 -0.0372393 -0.158193 -0.05634 0 0 -0.567932 0 0 
222 1 222 0.33945 0.859968 0 0 -0.458183 -0.0300144 -0.156611 -0.0379682 0 0 -0.767279 0 0 
223 1 223 0.339461 0.9 0 0 -0.448486 -0.00579254 -0.145713 -0.0256326 0 0 -1.19886 0 0 
224 1 224 0.339473 0.940033 0 0 -0.439523 -0.00674767 -0.143155 -0.0264039 0 0 -0.854758 0 0 
225 1 225 0.339486 0.980065 0 0 -0.40795 0.0103881 -0.127508 -0.00475059 0 0 -1.54014 0 0 
226 1 226 0.379969 0.0199794 0 0 -0.173514 -0.341215 -0.16513 -0.140382 0 0 0.338227 0 0 
227 1 227 0.37991 0.0599389 0 0 -0.183995 -0.323339 -0.162751 -0.129135 0 0 0.8749 0 0 
228 1 228 0.379856 0.0999032 0 0 -0.186222 -0.303886 -0.157219 -0.122196 0 0 1.21691 0 0 
229 1 229 0.379812 0.139871 0 0 -0.188415 -0.271222 -0.147431 -0.107174 0 0 1.45508 0 0 
230 1 230 0.379776 0.179844 0 0 -0.208946 -0.259387 -0.150227 -0.106548 0 0 1.83355 0 0 
231 1 231 0.379745 0.21982 0 0 -0.223539 -0.231554 -0.145975 -0.0987291 0 0 1.98148 0 0 
232 1 232 0.379715 0.259801 0 0 -0.254836 -0.232467 -0.156318 -0.107955 0 0 2.02908 0 0 
233 1 233 0.379683 0.299784 0 0 -0.278142 -0.220025 -0.159806 -0.112462 0 0 1.9264 0 0 
234 1 234 0.379649 0.339771 0 0 -0.312286 -0.229692 -0.173883 -0.126226 0 0 2.01326 0 0 
235 1 235 0.37961 0.379759 0 0 -0.340627 -0.219662 -0.179764 -0.131212 0 0 1.93842 0 0 
236 1 236 0.379572 0.419752 0 0 -0.365814 -0.201698 -0.182086 -0.132263 0 0 1.83837 0 0 
237 1 237 0.379537 0.459749 0 0 -0.395036 -0.188666 -0.187289 -0.126672 0 0 1.6531 0 0 
238 1 238 0.379509 0.499752 0 0 -0.416216 -0.157671 -0.184138 -0.11698 0 0 1.72665 0 0 
239 1 239 0.379487 0.539761 0 0 -0.439611 -0.138223 -0.185404 -0.107736 0 0 1.76335 0 0 
240 1 240 0.379469 0.579774 0 0 -0.447811 -0.118955 -0.181848 -0.108704 0 0 1.57548 0 0 
241 1 241 0.379458 0.619791 0 0 -0.45994 -0.104045 -0.18096 -0.0983863 0 0 1.40775 0 0 
242 1 242 0.379446 0.659812 0 0 -0.492178 -0.102233 -0.190735 -0.108042 0 0 2.22449 0 0 
243 1 243 0.379433 0.699834 0 0 -0.525763 -0.106307 -0.20284 -0.0893331 0 0 2.41184 0 0 
244 1 244 0.379418 0.739858 0 0 -0.541912 -0.0977577 -0.205281 -0.0922171 0 0 2.70643 0 0 
245 1 245 0.379405 0.779884 0 0 -0.550459 -0.0946823 -0.20704 -0.0706651 0 0 1.93346 0 0 
246 1 246 0.379397 0.819912 0 0 -0.544216 -0.0698268 -0.197043 -0.066187 0 0 1.51977 0 0 
247 1 247 0.379394 0.859943 0 0 -0.534158 -0.0581755 -0.190075 -0.0455224 0 0 0.993804 0 0 
248 1 248 0.379399 0.899976 0 0 -0.513669 -0.0266096 -0.173345 -0.0331924 0 0 0.503168 0 0 
249 1 249 0.379408 0.94001 0 0 -0.491914 -0.0221243 -0.164926 -0.0280658 0 0 0.504039 0 0 
250 1 250 0.379423 0.980044 0 0 -0.452095 -0.00482864 -0.14657 -0.00828056 0 0 0.07497 0 0 
251 1 251 0.419965 0.0199779 0 0 -0.17407 -0.360928 -0.171642 -0.145332 0 0 0.118483 0 0 
252 1 252 0.419901 0.0599343 0 0 -0.17954 -0.343746 -0.167875 -0.133275 0 0 0.503911 0 0 
253 1 253 0.419847 0.0998949 0 0 -0.189788 -0.327137 -0.165832 -0.125012 0 0 1.00824 0 0 
254 1 254 0.419801 0.139859 0 0 -0.194897 -0.297686 -0.158014 -0.113014 0 0 1.33147 0 0 
255 1 255 0.419761 0.179828 0 0 -0.209988 -0.278604 -0.156736 -0.112823 0 0 1.75291 0 0 
256 1 256 0.419725 0.219803 0 0 -0.22284 -0.241358 -0.148901 -0.106892 0 0 1.88577 0 0 
257 1 257 0.41969 0.259782 0 0 -0.25968 -0.247669 -0.16276 -0.117225 0 0 1.94794 0 0 
258 1 258 0.419653 0.299764 0 0 -0.280466 -0.223693 -0.161735 -0.121219 0 0 1.95296 0 0 
259 1 259 0.419613 0.33975 0 0 -0.316137 -0.236616 -0.177348 -0.135547 0 0 2.07441 0 0 
260 1 260 0.419568 0.379738 0 0 -0.336757 -0.220743 -0.17887 -0.140242 0 0 1.79327 0 0 
261 1 261 0.419522 0.419731 0 0 -0.368605 -0.21414 -0.186983 -0.145057 0 0 1.65294 0 0 
262 1 262 0.419477 0.459726 0 0 -0.391024 -0.194889 -0.188 -0.136236 0 0 1.17994 0 0 
263 1 263 0.419437 0.499728 0 0 -0.394568 -0.160457 -0.178075 -0.12528 0 0 0.672282 0 0 
264 1 264 0.419403 0.539735 0 0 -0.40567 -0.132626 -0.172698 -0.117209 0 0 0.483302 0 0 
265 1 265 0.419373 0.579747 0 0 -0.425615 -0.112784 -0.172731 -0.112468 0 0 0.509897 0 0 
266 1 266 0.419344 0.619762 0 0 -0.449524 -0.100813 -0.176574 -0.102734 0 0 0.55442 0 0 
267 1 267 0.419318 0.659782 0 0 -0.45006 -0.0810926 -0.170409 -0.101884 0 0 0.334667 0 0 
268 1 268 0.419301 0.699803 0 0 -0.444842 -0.068673 -0.164741 -0.0856156 0 0 -0.294483 0 0 
269 1 269 0.419291 0.739827 0 0 -0.452432 -0.0537192 -0.162373 -0.0886959 0 0 -0.349841 0 0 
270 1 270 0.419287 0.779853 0 0 -0.467363 -0.051821 -0.166563 -0.071699 0 0 -0.768668 0 0 
271 1 271 0.419289 0.819883 0 0 -0.474753 -0.0347529 -0.163453 -0.0686723 0 0 -0.656793 0 0 
272 1 272 0.419295 0.859914 0 0 -0.482723 -0.0307637 -0.164741 -0.0469838 0 0 -0.909581 0 0 
273 1 273 0.419307 0.899948 0 0 -0.475526 -0.00369396 -0.153733 -0.0418729 0 0 -0.766481 0 0 
274 1 274 0.419323 0.939983 0 0 -0.469047 -0.00960471 -0.15356 -0.0246968 0 0 -0.626226 0 0 
275 1 275 0.419346 0.980017 0 0 -0.436143 0.0111374 -0.13632 -0.00949798 0 0 -0.431722 0 0 
276 1 276 0.459967 0.0199764 0 0 -0.189834 -0.385512 -0.184608 -0.148959 0 0 0.0898811 0 0 
277 1 277 0.459903 0.0599295 0 0 -0.196102 -0.373644 -0.182803 -0.137674 0 0 0.362107 0 0 
278 1 278 0.459845 0.0998867 0 0 -0.19407 -0.349807 -0.174493 -0.128951 0 0 0.758632 0 0 
279 1 279 0.459794 0.139847 0 0 -0.198083 -0.318187 -0.165625 -0.119513 0 0 1.10762 0 0 
280 1 280 0.45975 0.179814 0 0 -0.21764 -0.297424 -0.16524 -0.118641 0 0 1.66451 0 0 
281 1 281 0.459709 0.219786 0 0 -0.2304 -0.259005 -0.156996 -0.113927 0 0 1.94177 0 0 
282 1 282 0.459669 0.259764 0 0 -0.262732 -0.257737 -0.166975 -0.124109 0 0 2.0362 0 0 
283 1 283 0.459627 0.299744 0 0 -0.283404 -0.231065 -0.165046 -0.125638 0 0 1.88904 0 0 
284 1 284 0.459583 0.33973 0 0 -0.322268 -0.240007 -0.180406 -0.140508 0 0 2.13607 0 0 
285 1 285 0.459534 0.379717 0 0 -0.352667 -0.228931 -0.186613 -0.142237 0 0 1.94565 0 0 
286 1 286 0.459485 0.419709 0 0 -0.381014 -0.225264 -0.194545 -0.14443 0 0 2.08073 0 0 
287 1 287 0.45944 0.459703 0 0 -0.399849 -0.201974 -0.193116 -0.129339 0 0 2.10047 0 0 
288 1 288 0.459402 0.499704 0 0 -0.434724 -0.188383 -0.19996 -0.118346 0 0 2.06916 0 0 
289 1 289 0.459371 0.539709 0 0 -0.467152 -0.173411 -0.205566 -0.107562 0 0 1.96789 0 0 
290 1 290 0.459346 0.57972 0 0 -0.465748 -0.139408 -0.194184 -0.100422 0 0 1.55748 0 0 
291 1 291 0.459327 0.619735 0 0 -0.475155 -0.119553 -0.190829 -0.104692 0 0 1.89124 0 0 
292 1 292 0.459308 0.659754 0 0 -0.509539 -0.11667 -0.200955 -0.104241 0 0 2.15941 0 0 
293 1 293 0.459289 0.699775 0 0 -0.546567 -0.11919 -0.213669 -0.0970185 0 0 2.51451 0 0 
294 1 294 0.459269 0.7398 0 0 -0.566558 -0.112217 -0.217851 -0.0959083 0 0 2.6128 0 0 
295 1 295 0.459251 0.779825 0 0 -0.567732 -0.104182 -0.21565 -0.0770113 0 0 1.77253 0 0 
296 1 296 0.45924 0.819853 0 0 -0.557727 -0.0781849 -0.204074 -0.0770816 0 0 1.52912 0 0 
297 1 297 0.459236 0.859883 0 0 -0.5549 -0.0718051 -0.201123 -0.0544263 0 0 0.772606 0 0 
298 1 298 0.459241 0.899916 0 0 -0.539055 -0.0395359 -0.185658 -0.0530933 0 0 0.715329 0 0 
299 1 299 0.459253 0.93995 0 0 -0.526726 -0.0349461 -0.18023 -0.0293024 0 0 0.526531 0 0 
300 1 300 0.459276 0.979986 0 0 -0.501935 -0.0120225 -0.164889 -0.0170654 0 0 1.16844 0 0 
301 1 301 0.499963 0.0199751 0 0 -0.187322 -0.400952 -0.188763 -0.151041 0 0 -0.0535822 0 0 
302 1 302 0.499896 0.0599256 0 0 -0.189685 -0.388571 -0.185539 -0.141101 0 0 0.0436348 0 0 
303 1 303 0.499837 0.09988 0 0 -0.199954 -0.369718 -0.182783 -0.130049 0 0 0.509987 0 0 
304 1 304 0.499786 0.139838 0 0 -0.202081 -0.334898 -0.172279 -0.12241 0 0 0.954506 0 0 
305 1 305 0.499736 0.179803 0 0 -0.214844 -0.307733 -0.167654 -0.12378 0 0 1.54351 0 0 
306 1 306 0.49969 0.219772 0 0 -0.236604 -0.277447 -0.164914 -0.119717 0 0 1.82502 0 0 
307 1 307 0.499644 0.259749 0 0 -0.270937 -0.265567 -0.172125 -0.130197 0 0 2.02 0 0 
308 1 308 0.499596 0.299729 0 0 -0.301226 -0.242544 -0.174457 -0.13044 0 0 1.89269 0 0 
309 1 309 0.499545 0.339715 0 0 -0.338837 -0.248513 -0.188461 -0.142864 0 0 2.21494 0 0 
310 1 310 0.49949 0.379702 0 0 -0.352464 -0.222656 -0.184529 -0.143458 0 0 2.08633 0 0 
311 1 311 0.499434 0.419695 0 0 -0.383173 -0.226073 -0.195497 -0.145592 0 0 2.08486 0 0 
312 1 312 0.49938 0.45969 0 0 -0.39666 -0.201839 -0.192049 -0.130155 0 0 1.69787 0 0 
313 1 313 0.49933 0.499691 0 0 -0.399552 -0.178227 -0.185393 -0.122228 0 0 1.12437 0 0 
314 1 314 0.499287 0.539694 0 0 -0.40569 -0.151158 -0.178662 -0.109302 0 0 0.866992 0 0 
315 1 315 0.499249 0.579704 0 0 -0.429262 -0.131267 -0.179842 -0.0954855 0 0 0.625936 0 0 
316 1 316 0.499213 0.619716 0 0 -0.453449 -0.120272 -0.184083 -0.097359 0 0 0.930349 0 0 
317 1 317 0.49918 0.659732 0 0 -0.442829 -0.0978655 -0.173471 -0.0850803 0 0 0.182891 0 0 
318 1 318 0.499157 0.699751 0 0 -0.43018 -0.0755433 -0.162237 -0.0847226 0 0 -0.175081 0 0 
319 1 319 0.499141 0.739773 0 0 -0.442518 -0.0656205 -0.163011 -0.0852584 0 0 -0.480427 0 0 
320 1 320 0.499133 0.779796 0 0 -0.467325 -0.07008 -0.172418 -0.0719345 0 0 -0.894982 0 0 
321 1 321 0.499131 0.819822 0 0 -0.485738 -0.0597515 -0.175012 -0.0758638 0 0 -0.485064 0 0 
322 1 322 0.499135 0.85985 0 0 -0.500923 -0.0596428 -0.179863 -0.0540972 0 0 -0.815666 0 0 
323 1 323 0.499146 0.899881 0 0 -0.502878 -0.0342619 -0.172336 -0.0570388 0 0 -0.238604 0 0 
324 1 324 0.499164 0.939914 0 0 -0.506012 -0.0261927 -0.170757 -0.0252212 0 0 -0.300484 0 0 
325 1 325 0.499191 0.979951 0 0 -0.491137 0.00376749 -0.156345 -0.0179513 0 0 0.737955 0 0 
326 1 326 0.539966 0.019974 0 0 -0.203436 -0.421512 -0.200551 -0.150482 0 0 -0.0734547 0 0 
327 1 327 0.5399 0.0599224 0 0 -0.2009 -0.405087 -0.194454 -0.141447 0 0 -0.0523362 0 0 
328 1 328 0.539837 0.0998749 0 0 -0.197359 -0.380486 -0.185411 -0.13041 0 0 0.357875 0 0 
329 1 329 0.53978 0.139831 0 0 -0.204474 -0.346713 -0.176844 -0.124151 0 0 0.805385 0 0 
330 1 330 0.539727 0.179794 0 0 -0.224809 -0.321116 -0.175155 -0.126018 0 0 1.49246 0 0 
331 1 331 0.539675 0.219762 0 0 -0.246221 -0.290367 -0.172155 -0.121565 0 0 1.88299 0 0 
332 1 332 0.539622 0.259738 0 0 -0.275192 -0.270492 -0.175075 -0.129451 0 0 2.1801 0 0 