ITEM: TIMESTEP
0
ITEM: NUMBER OF ATOMS
6875
ITEM: BOX BOUNDS sm sm sm
0 4
0 2
0 0
ITEM: ATOMS id type tag x y z damage s11 s22 s33 s12 s13 s23 vx T ienergy 
1 1 1 0.0199977 0.0199976 0 0 -0.043805 -0.0516191 -0.0305752 -0.0171359 0 0 -0.25106 0 0 
2 1 2 0.0199948 0.0599936 0 0 -0.0753922 -0.0509193 -0.0404705 -0.0305012 0 0 -0.345529 0 0 
3 1 3 0.0199937 0.0999922 0 0 -0.0885295 -0.0484296 -0.0438858 -0.034397 0 0 -0.0584492 0 0 
4 1 4 0.0199941 0.139993 0 0 -0.0789967 -0.0233705 -0.032797 -0.0314617 0 0 0.067645 0 0 
5 1 5 0.0199944 0.179994 0 0 -0.0843389 -0.040546 -0.040015 -0.0257739 0 0 0.11128 0 0 
6 1 6 0.0199957 0.219994 0 0 -0.063349 -0.0298682 -0.0298623 -0.0227823 0 0 -0.0136788 0 0 
7 1 7 0.0199964 0.259993 0 0 -0.0547458 -0.0327226 -0.0280183 -0.0304136 0 0 0.217319 0 0 
8 1 8 0.019996 0.299993 0 0 -0.0534328 -0.0210417 -0.023851 -0.0308715 0 0 -0.0277358 0 0 
9 1 9 0.0199948 0.339994 0 0 -0.0709381 -0.0234712 -0.0302389 -0.0306833 0 0 0.114218 0 0 
10 1 10 0.0199929 0.379997 0 0 -0.0902457 -0.0132827 -0.033161 -0.0153737 0 0 -0.0199386 0 0 
11 1 11 0.0199922 0.420001 0 0 -0.0984575 -0.0254535 -0.0396949 0.00707595 0 0 -0.323975 0 0 
12 1 12 0.0199916 0.460005 0 0 -0.108926 -0.0242617 -0.0426706 0.0151194 0 0 -0.0697044 0 0 
13 1 13 0.0199904 0.500009 0 0 -0.120133 -0.045155 -0.0529645 0.0398165 0 0 -0.527849 0 0 
14 1 14 0.0199901 0.54001 0 0 -0.113077 -0.0444202 -0.0504679 0.037896 0 0 -0.363272 0 0 
15 1 15 0.0199855 0.580011 0 0 -0.137411 -0.055038 -0.0616783 0.0442466 0 0 -0.869333 0 0 
16 1 16 0.0199826 0.620013 0 0 -0.142813 -0.0533021 -0.0628552 0.0567772 0 0 -1.59203 0 0 
17 1 17 0.0199799 0.660016 0 0 -0.165356 -0.0582969 -0.0716894 0.0590469 0 0 -1.30968 0 0 
18 1 18 0.0199784 0.70002 0 0 -0.193799 -0.05315 -0.0791618 0.0842809 0 0 -1.36185 0 0 
19 1 19 0.0199812 0.740026 0 0 -0.180867 -0.067958 -0.0797632 0.114844 0 0 -1.33291 0 0 
20 1 20 0.0199844 0.780029 0 0 -0.172238 -0.0460739 -0.0699742 0.113562 0 0 -0.0372613 0 0 
21 1 21 0.0199853 0.820033 0 0 -0.177337 -0.0824579 -0.0832798 0.149621 0 0 -0.795981 0 0 
22 1 22 0.0199906 0.860032 0 0 -0.134853 -0.0610517 -0.062786 0.133895 0 0 0.0404294 0 0 
23 1 23 0.0199886 0.900033 0 0 -0.161982 -0.0764497 -0.0764266 0.133842 0 0 0.13201 0 0 
24 1 24 0.0199874 0.940032 0 0 -0.200131 -0.0921877 -0.0937226 0.131629 0 0 -0.271862 0 0 
25 1 25 0.0199724 0.980041 0 0 -0.348575 -0.0922609 -0.151378 0.106347 0 0 -0.44529 0 0 
26 1 26 0.0599972 0.0199946 0 0 -0.0426511 -0.0902411 -0.0425857 -0.0160469 0 0 -0.0427054 0 0 
27 1 27 0.0599914 0.0599852 0 0 -0.0493935 -0.0636985 -0.0362363 -0.0238522 0 0 0.0212985 0 0 
28 1 28 0.0599857 0.0999804 0 0 -0.0889592 -0.0659633 -0.049646 -0.0235766 0 0 -0.0359748 0 0 
29 1 29 0.0599836 0.13998 0 0 -0.0834961 -0.0146882 -0.0314521 -0.020536 0 0 -0.164963 0 0 
30 1 30 0.0599849 0.179982 0 0 -0.0824653 -0.04662 -0.0413618 -0.0161179 0 0 0.0740322 0 0 
31 1 31 0.0599897 0.219981 0 0 -0.0450356 -0.0236289 -0.0219935 -0.0140872 0 0 -0.0500863 0 0 
32 1 32 0.059992 0.259979 0 0 -0.0502849 -0.0442798 -0.030296 -0.0337268 0 0 0.671319 0 0 
33 1 33 0.0599894 0.299978 0 0 -0.0549917 -0.0120248 -0.0214652 -0.0355009 0 0 0.054844 0 0 
34 1 34 0.0599843 0.339982 0 0 -0.0889777 -0.0162455 -0.033711 -0.0426134 0 0 0.269594 0 0 
35 1 35 0.0599778 0.379989 0 0 -0.10375 0.0252653 -0.0251388 -0.0304295 0 0 0.0862641 0 0 
36 1 36 0.0599758 0.420001 0 0 -0.132527 -0.00343724 -0.0435639 -0.00299159 0 0 -0.449252 0 0 
37 1 37 0.059975 0.460011 0 0 -0.129208 0.0098747 -0.0382341 -0.00948514 0 0 0.451708 0 0 
38 1 38 0.0599744 0.500021 0 0 -0.13729 -0.0180942 -0.0497939 0.0314883 0 0 -0.354996 0 0 
39 1 39 0.0599784 0.540027 0 0 -0.14148 -0.0333893 -0.0560414 0.0222717 0 0 0.86405 0 0 
40 1 40 0.059976 0.580033 0 0 -0.155744 -0.0333537 -0.0606047 0.0335139 0 0 1.39339 0 0 
41 1 41 0.0599759 0.620039 0 0 -0.179105 -0.036624 -0.0691459 0.0545797 0 0 1.53302 0 0 
42 1 42 0.0599718 0.660049 0 0 -0.205486 -0.0328433 -0.0763962 0.0506419 0 0 2.53826 0 0 
43 1 43 0.0599648 0.700061 0 0 -0.207952 -0.00410729 -0.0679698 0.0808916 0 0 2.05963 0 0 
44 1 44 0.0599647 0.740075 0 0 -0.229836 -0.0344005 -0.0847081 0.121684 0 0 1.04878 0 0 
45 1 45 0.0599663 0.780086 0 0 -0.195259 -0.0209322 -0.0692946 0.111318 0 0 1.98918 0 0 
46 1 46 0.059968 0.820095 0 0 -0.167328 -0.0454532 -0.0681981 0.159651 0 0 0.269656 0 0 
47 1 47 0.0599747 0.860098 0 0 -0.166063 -0.0786781 -0.0784551 0.137094 0 0 0.628642 0 0 
48 1 48 0.0599704 0.900099 0 0 -0.149355 -0.0499006 -0.0638558 0.133562 0 0 0.755108 0 0 
49 1 49 0.0599602 0.940105 0 0 -0.220528 -0.0622768 -0.0906644 0.131397 0 0 0.0204988 0 0 
50 1 50 0.0599265 0.980117 0 0 -0.23995 0.00297573 -0.0759656 0.0426351 0 0 -0.221427 0 0 
51 1 51 0.0999965 0.019994 0 0 -0.045036 -0.0986699 -0.0460645 -0.0124439 0 0 -0.254897 0 0 
52 1 52 0.0999866 0.0599832 0 0 -0.0467366 -0.0745226 -0.0388612 -0.0267292 0 0 -0.482503 0 0 
53 1 53 0.0999756 0.0999756 0 0 -0.0788766 -0.0804603 -0.0510641 -0.0232748 0 0 -0.554987 0 0 
54 1 54 0.0999717 0.139973 0 0 -0.0662177 -0.0247971 -0.0291573 -0.0116409 0 0 -0.200343 0 0 
55 1 55 0.0999761 0.179971 0 0 -0.0698943 -0.0587533 -0.0412242 -0.0046371 0 0 0.0749665 0 0 
56 1 56 0.0999836 0.219969 0 0 -0.0417535 -0.0252264 -0.0214549 -0.00903346 0 0 -0.233544 0 0 
57 1 57 0.0999865 0.259966 0 0 -0.053844 -0.0510598 -0.033612 -0.0318191 0 0 0.678403 0 0 
58 1 58 0.0999804 0.299966 0 0 -0.0494402 0.00325379 -0.0147928 -0.039207 0 0 0.224547 0 0 
59 1 59 0.0999701 0.339971 0 0 -0.0916586 -0.00915406 -0.0323015 -0.0471762 0 0 0.32002 0 0 
60 1 60 0.0999573 0.379981 0 0 -0.107172 0.0400352 -0.0215053 -0.0424606 0 0 -0.0612094 0 0 
61 1 61 0.0999514 0.419996 0 0 -0.148531 0.0163818 -0.0423445 -0.0117072 0 0 -0.917516 0 0 
62 1 62 0.0999492 0.46001 0 0 -0.152912 0.0250189 -0.0409818 -0.0220378 0 0 -0.0433009 0 0 
63 1 63 0.0999483 0.500025 0 0 -0.157192 0.0124168 -0.0463957 0.0194211 0 0 -1.00286 0 0 
64 1 64 0.0999493 0.540038 0 0 -0.168595 -0.00579055 -0.0558878 0.00326789 0 0 -0.0593911 0 0 
65 1 65 0.0999407 0.580051 0 0 -0.164159 0.00411792 -0.0512863 0.0203584 0 0 -0.459177 0 0 
66 1 66 0.0999325 0.620064 0 0 -0.180974 0.00469842 -0.0564923 0.0315975 0 0 -1.00276 0 0 
67 1 67 0.0999207 0.660081 0 0 -0.208345 0.0206687 -0.0601475 0.0330568 0 0 -0.761338 0 0 
68 1 68 0.0999133 0.7001 0 0 -0.214968 0.0191531 -0.0627594 0.0737188 0 0 -1.31313 0 0 
69 1 69 0.0999165 0.740121 0 0 -0.214017 0.0400886 -0.0557414 0.0981269 0 0 -0.709238 0 0 
70 1 70 0.0999246 0.780141 0 0 -0.218791 -0.00809704 -0.0727276 0.122093 0 0 -0.387509 0 0 
71 1 71 0.0999381 0.820153 0 0 -0.164134 -0.00747919 -0.0549974 0.154528 0 0 -0.694303 0 0 
72 1 72 0.0999494 0.860163 0 0 -0.163176 -0.0350391 -0.063534 0.134233 0 0 0.415818 0 0 
73 1 73 0.0999464 0.900169 0 0 -0.171312 -0.0468034 -0.069909 0.135753 0 0 0.108354 0 0 
74 1 74 0.0999314 0.940177 0 0 -0.161063 -0.00765034 -0.0540638 0.0859724 0 0 -0.107189 0 0 
75 1 75 0.0998925 0.980188 0 0 -0.184758 -0.0249146 -0.067203 0.0421337 0 0 -0.852587 0 0 
76 1 76 0.139997 0.019994 0 0 -0.0567846 -0.102657 -0.0511078 -0.014789 0 0 -0.240256 0 0 
77 1 77 0.139986 0.0599832 0 0 -0.0548483 -0.0791409 -0.0429412 -0.0308191 0 0 -0.270158 0 0 
78 1 78 0.139973 0.099975 0 0 -0.0567092 -0.0807828 -0.0440661 -0.0235241 0 0 -0.428402 0 0 
79 1 79 0.139967 0.139968 0 0 -0.042781 -0.0468817 -0.02873 -0.00594749 0 0 -0.171138 0 0 
80 1 80 0.139972 0.179963 0 0 -0.0526049 -0.0667318 -0.0382425 0.00735965 0 0 -0.160541 0 0 
81 1 81 0.13998 0.219959 0 0 -0.0399786 -0.0267191 -0.0213673 -0.00139178 0 0 -0.280344 0 0 
82 1 82 0.139982 0.259957 0 0 -0.0600211 -0.04262 -0.0328883 -0.0213909 0 0 0.503037 0 0 
83 1 83 0.139972 0.299958 0 0 -0.0639323 0.00490828 -0.0189092 -0.0402693 0 0 0.194211 0 0 
84 1 84 0.139955 0.339965 0 0 -0.111667 -0.00919613 -0.0387313 -0.0465992 0 0 -0.000361937 0 0 
85 1 85 0.139937 0.379976 0 0 -0.125527 0.0310612 -0.0302662 -0.0412152 0 0 -0.405623 0 0 
86 1 86 0.139926 0.419991 0 0 -0.160986 0.0233513 -0.0441029 -0.0102841 0 0 -0.848637 0 0 
87 1 87 0.139922 0.460008 0 0 -0.17283 0.032185 -0.0450686 -0.0148341 0 0 -0.226964 0 0 
88 1 88 0.139922 0.500026 0 0 -0.191263 0.0186806 -0.055311 0.0176127 0 0 -0.570238 0 0 
89 1 89 0.139924 0.540044 0 0 -0.210247 0.0157431 -0.0623397 -0.0037153 0 0 0.901422 0 0 
90 1 90 0.139919 0.580064 0 0 -0.218132 0.0192845 -0.0637329 0.0125245 0 0 1.42503 0 0 
91 1 91 0.139914 0.620083 0 0 -0.245565 0.00580912 -0.0768557 0.00679856 0 0 2.3211 0 0 
92 1 92 0.1399 0.660106 0 0 -0.245027 0.0549239 -0.060928 0.00624052 0 0 3.03582 0 0 
93 1 93 0.139889 0.700132 0 0 -0.270698 0.0163107 -0.08155 0.0553416 0 0 1.62792 0 0 
94 1 94 0.139889 0.740157 0 0 -0.244406 0.0635637 -0.0579593 0.0688431 0 0 2.14362 0 0 
95 1 95 0.139896 0.780184 0 0 -0.231474 0.0386275 -0.0618104 0.112127 0 0 1.04296 0 0 
96 1 96 0.139913 0.820204 0 0 -0.216651 -0.000932026 -0.0697425 0.1463 0 0 0.0243575 0 0 
97 1 97 0.139926 0.860221 0 0 -0.179557 0.0310955 -0.0475744 0.115758 0 0 1.25017 0 0 
98 1 98 0.139923 0.900236 0 0 -0.171888 -0.027435 -0.0638811 0.130706 0 0 0.0420574 0 0 
99 1 99 0.139908 0.940244 0 0 -0.157523 -0.0156061 -0.0554903 0.0765265 0 0 0.461919 0 0 
100 1 100 0.139865 0.980256 0 0 -0.177654 0.00138866 -0.0564934 0.0309467 0 0 -0.62456 0 0 
101 1 101 0.179995 0.0199944 0 0 -0.0505875 -0.0934115 -0.0461455 -0.0181186 0 0 -0.331771 0 0 
102 1 102 0.179982 0.0599847 0 0 -0.040792 -0.0705829 -0.0356871 -0.0263015 0 0 -0.618 0 0 
103 1 103 0.179969 0.0999757 0 0 -0.0383856 -0.0809356 -0.03824 -0.0219657 0 0 -0.80353 0 0 
104 1 104 0.179964 0.139966 0 0 -0.0341977 -0.0736025 -0.0345463 -0.00572126 0 0 -0.385453 0 0 
105 1 105 0.179969 0.179958 0 0 -0.0383302 -0.062692 -0.0323734 0.0100515 0 0 -0.191015 0 0 
106 1 106 0.179974 0.219953 0 0 -0.0476228 -0.0309208 -0.0251646 -0.00160939 0 0 -0.229338 0 0 
107 1 107 0.179973 0.259953 0 0 -0.0744595 -0.0298144 -0.0334121 -0.0180296 0 0 0.0991084 0 0 
108 1 108 0.179959 0.299956 0 0 -0.0862142 -0.000995837 -0.0279443 -0.0428474 0 0 -0.0610578 0 0 
109 1 109 0.179936 0.339964 0 0 -0.123583 -0.00616256 -0.0415808 -0.0518904 0 0 -0.350442 0 0 
110 1 110 0.179912 0.379975 0 0 -0.137528 0.0262612 -0.0356526 -0.0407994 0 0 -0.818061 0 0 
111 1 111 0.179896 0.419991 0 0 -0.180057 0.00980271 -0.0545617 -0.0200421 0 0 -1.11104 0 0 
112 1 112 0.179889 0.460008 0 0 -0.188634 0.0373868 -0.048467 -0.010514 0 0 -1.02401 0 0 
113 1 113 0.179886 0.500028 0 0 -0.204399 0.0222617 -0.0583745 0.00878852 0 0 -0.832763 0 0 
114 1 114 0.179882 0.540049 0 0 -0.210485 0.0369264 -0.0556226 -0.008619 0 0 0.0478284 0 0 
115 1 115 0.179872 0.580072 0 0 -0.199761 0.0597836 -0.0448566 -0.00031343 0 0 -0.365764 0 0 
116 1 116 0.179858 0.620097 0 0 -0.224458 0.0424518 -0.0583356 -0.013853 0 0 -0.190213 0 0 
117 1 117 0.179839 0.660124 0 0 -0.203502 0.0994342 -0.0333446 -0.00655662 0 0 -0.433928 0 0 
118 1 118 0.179829 0.700155 0 0 -0.223433 0.0740817 -0.0478633 0.0321309 0 0 -1.14031 0 0 
119 1 119 0.179832 0.740185 0 0 -0.234488 0.0890364 -0.0466105 0.0550433 0 0 -0.411798 0 0 
120 1 120 0.179846 0.780216 0 0 -0.216538 0.0907936 -0.0402927 0.105619 0 0 -0.909873 0 0 
121 1 121 0.179871 0.820246 0 0 -0.215073 0.069779 -0.0465585 0.129966 0 0 -0.498341 0 0 
122 1 122 0.179888 0.860272 0 0 -0.20133 0.0620401 -0.0446312 0.110686 0 0 0.510128 0 0 
123 1 123 0.179894 0.900294 0 0 -0.167082 0.0315509 -0.0434258 0.128824 0 0 -0.559973 0 0 
124 1 124 0.179882 0.94031 0 0 -0.149385 0.0149717 -0.0430832 0.0609057 0 0 0.526908 0 0 
125 1 125 0.179838 0.980322 0 0 -0.138088 0.0103572 -0.0409372 0.0298188 0 0 -0.761939 0 0 
126 1 126 0.219995 0.0199956 0 0 -0.0390651 -0.0718587 -0.0355425 -0.0204575 0 0 -0.00215604 0 0 
127 1 127 0.219983 0.0599873 0 0 -0.0354288 -0.0693895 -0.0335809 -0.0192495 0 0 -0.443722 0 0 
128 1 128 0.219973 0.0999769 0 0 -0.0225278 -0.0833654 -0.0339291 -0.014273 0 0 -0.632808 0 0 
129 1 129 0.219967 0.139965 0 0 -0.017435 -0.082236 -0.0319379 -0.00129843 0 0 -0.32622 0 0 
130 1 130 0.219968 0.179956 0 0 -0.0338147 -0.0621412 -0.0307485 0.00970741 0 0 -0.194497 0 0 
131 1 131 0.219968 0.219951 0 0 -0.0669965 -0.0357617 -0.0329261 -0.00835496 0 0 -0.166694 0 0 
132 1 132 0.219962 0.259953 0 0 -0.0974219 -0.0242715 -0.0389954 -0.0173313 0 0 -0.272438 0 0 
133 1 133 0.219944 0.299958 0 0 -0.110457 -0.00135455 -0.0358293 -0.0448418 0 0 -0.28775 0 0 
134 1 134 0.219916 0.339967 0 0 -0.140558 -0.011547 -0.04875 -0.0532902 0 0 -0.712119 0 0 
135 1 135 0.219889 0.379978 0 0 -0.147084 0.0173083 -0.0415886 -0.0410609 0 0 -0.993604 0 0 
136 1 136 0.219868 0.419993 0 0 -0.187029 -0.0006164 -0.0601427 -0.0307249 0 0 -0.912485 0 0 
137 1 137 0.219856 0.460009 0 0 -0.196045 0.0337611 -0.0520115 -0.00612068 0 0 -0.915351 0 0 
138 1 138 0.219853 0.50003 0 0 -0.217851 0.0268241 -0.0612302 0.000427877 0 0 0.0424563 0 0 
139 1 139 0.219849 0.540053 0 0 -0.238439 0.0369898 -0.0645714 -0.00850737 0 0 1.1057 0 0 
140 1 140 0.219842 0.580079 0 0 -0.250423 0.0539799 -0.0629675 -0.00102335 0 0 1.62182 0 0 
141 1 141 0.219831 0.620107 0 0 -0.2762 0.0540532 -0.0712123 -0.0239533 0 0 3.29238 0 0 
142 1 142 0.219812 0.660139 0 0 -0.280066 0.0709483 -0.0670321 -7.02788e-05 0 0 2.90494 0 0 
143 1 143 0.219801 0.700172 0 0 -0.273433 0.0775196 -0.0627945 0.0222322 0 0 2.56676 0 0 
144 1 144 0.219797 0.740206 0 0 -0.263559 0.100298 -0.0523215 0.0478378 0 0 2.4549 0 0 
145 1 145 0.219808 0.780243 0 0 -0.267571 0.0967838 -0.054733 0.1044 0 0 0.658125 0 0 
146 1 146 0.219832 0.82028 0 0 -0.254088 0.120895 -0.042676 0.116927 0 0 0.82169 0 0 
147 1 147 0.21985 0.860316 0 0 -0.23094 0.0934864 -0.0440445 0.115704 0 0 0.972424 0 0 
148 1 148 0.219862 0.900345 0 0 -0.199588 0.0676476 -0.0422747 0.130558 0 0 -0.304441 0 0 
149 1 149 0.219855 0.940368 0 0 -0.170674 0.047487 -0.0394835 0.0529218 0 0 0.973439 0 0 
150 1 150 0.219816 0.980385 0 0 -0.127402 0.0171279 -0.0353406 0.029591 0 0 -0.327982 0 0 
151 1 151 0.259994 0.0199968 0 0 -0.0242986 -0.0491398 -0.0235295 -0.0243463 0 0 -0.132821 0 0 
152 1 152 0.259981 0.05999 0 0 -0.0221722 -0.0609729 -0.0266328 -0.0153156 0 0 -0.869497 0 0 
153 1 153 0.259975 0.0999799 0 0 -0.00255896 -0.0752038 -0.0249088 -0.00228 0 0 -0.767433 0 0 
154 1 154 0.25997 0.139967 0 0 -0.00517775 -0.0831634 -0.0283013 -0.00527661 0 0 -0.287008 0 0 
155 1 155 0.259967 0.179957 0 0 -0.0378456 -0.0683053 -0.0340131 0.000516478 0 0 -0.271035 0 0 
156 1 156 0.259959 0.219952 0 0 -0.0785921 -0.0382048 -0.037424 -0.0238004 0 0 -0.0903689 0 0 
157 1 157 0.259945 0.259956 0 0 -0.113498 -0.016942 -0.0417964 -0.0208317 0 0 -0.786053 0 0 
158 1 158 0.259924 0.299963 0 0 -0.132472 -0.00566183 -0.0442649 -0.0523593 0 0 -0.826845 0 0 
159 1 159 0.259892 0.339973 0 0 -0.150677 -0.00739044 -0.0506575 -0.0583166 0 0 -1.19899 0 0 
160 1 160 0.259863 0.379983 0 0 -0.161081 -0.00699396 -0.0538682 -0.0444484 0 0 -1.34588 0 0 
161 1 161 0.259837 0.419997 0 0 -0.17323 0.0121708 -0.0516189 -0.0419374 0 0 -0.791707 0 0 
162 1 162 0.259821 0.460013 0 0 -0.193941 0.0241637 -0.05442 -0.00613397 0 0 -1.16341 0 0 
163 1 163 0.259814 0.500034 0 0 -0.209247 0.0410683 -0.0539091 -0.00592012 0 0 -0.0284194 0 0 
164 1 164 0.259803 0.540059 0 0 -0.214399 0.0696362 -0.0463972 -0.0101417 0 0 0.516161 0 0 
165 1 165 0.259788 0.580088 0 0 -0.224201 0.0774513 -0.0470333 -0.00237684 0 0 0.0783253 0 0 
166 1 166 0.259769 0.620119 0 0 -0.209738 0.112223 -0.0312461 -0.0261933 0 0 0.73391 0 0 
167 1 167 0.259747 0.660153 0 0 -0.206247 0.11368 -0.0296584 -0.00244774 0 0 -0.206753 0 0 
168 1 168 0.259737 0.700188 0 0 -0.221387 0.117818 -0.0331822 0.0159794 0 0 -0.245284 0 0 
169 1 169 0.259736 0.740225 0 0 -0.225039 0.132682 -0.0295882 0.0436311 0 0 0.0674534 0 0 
170 1 170 0.25975 0.780265 0 0 -0.241017 0.142627 -0.0315208 0.0869753 0 0 -0.365466 0 0 
171 1 171 0.259774 0.820308 0 0 -0.261469 0.155612 -0.0339117 0.1055 0 0 0.0280729 0 0 
172 1 172 0.2598 0.860351 0 0 -0.239642 0.134097 -0.0338163 0.116621 0 0 0.0834871 0 0 
173 1 173 0.259822 0.900388 0 0 -0.201695 0.115571 -0.0275879 0.113073 0 0 -0.129863 0 0 
174 1 174 0.259822 0.940417 0 0 -0.169236 0.073748 -0.0306027 0.0493775 0 0 0.796095 0 0 
175 1 175 0.259796 0.980436 0 0 -0.097141 0.0336851 -0.0203311 0.0241267 0 0 -0.240255 0 0 
176 1 176 0.299994 0.0199977 0 0 -0.0159586 -0.0350708 -0.0163483 -0.0246678 0 0 0.0687906 0 0 
177 1 177 0.299985 0.059992 0 0 -0.0128283 -0.0494237 -0.0199403 -0.0096502 0 0 -0.302768 0 0 
178 1 178 0.299982 0.099983 0 0 0.000892623 -0.0691942 -0.0218773 0.0078232 0 0 -0.488879 0 0 
179 1 179 0.299977 0.139971 0 0 -0.00716256 -0.0841511 -0.0292525 -0.0142946 0 0 -0.314496 0 0 
180 1 180 0.299966 0.179961 0 0 -0.0421721 -0.0662265 -0.0347316 -0.0113933 0 0 -0.333256 0 0 
181 1 181 0.29995 0.219956 0 0 -0.0850691 -0.0434166 -0.041169 -0.0357244 0 0 -0.0333286 0 0 
182 1 182 0.299928 0.25996 0 0 -0.118316 -0.00821606 -0.0405408 -0.0290096 0 0 -1.13663 0 0 
183 1 183 0.299903 0.299968 0 0 -0.150904 -0.0164077 -0.0536166 -0.0541798 0 0 -1.46332 0 0 
184 1 184 0.299869 0.339979 0 0 -0.143472 0.00926476 -0.0430014 -0.0579844 0 0 -1.34316 0 0 
185 1 185 0.299838 0.37999 0 0 -0.162548 -0.0123621 -0.0560544 -0.0408293 0 0 -1.28408 0 0 
186 1 186 0.29981 0.420003 0 0 -0.164832 0.0192537 -0.0466523 -0.0400872 0 0 -0.360526 0 0 
187 1 187 0.29979 0.460021 0 0 -0.188297 0.0316378 -0.0502132 -0.00387658 0 0 -0.349383 0 0 
188 1 188 0.299779 0.500043 0 0 -0.217611 0.0439252 -0.0556772 0.00164698 0 0 0.818038 0 0 
189 1 189 0.299767 0.540069 0 0 -0.223481 0.0838796 -0.0447433 4.80117e-05 0 0 1.72479 0 0 
190 1 190 0.299755 0.5801 0 0 -0.265395 0.0708303 -0.0623657 -0.000680255 0 0 2.39073 0 0 
191 1 191 0.299738 0.620134 0 0 -0.280448 0.0914084 -0.0605909 -0.0104463 0 0 3.53845 0 0 
192 1 192 0.299719 0.660169 0 0 -0.28624 0.0744368 -0.0678903 0.00519264 0 0 3.69291 0 0 
193 1 193 0.299705 0.700205 0 0 -0.279868 0.104731 -0.0561285 0.0123453 0 0 3.71559 0 0 
194 1 194 0.299699 0.740243 0 0 -0.287401 0.0996217 -0.0601844 0.0468532 0 0 2.44931 0 0 
195 1 195 0.299706 0.780284 0 0 -0.280506 0.139887 -0.0450608 0.0663746 0 0 1.78588 0 0 
196 1 196 0.299724 0.820329 0 0 -0.280751 0.160685 -0.0384683 0.0880756 0 0 1.26138 0 0 
197 1 197 0.299752 0.860374 0 0 -0.265094 0.137521 -0.0408794 0.10925 0 0 0.323515 0 0 
198 1 198 0.299779 0.900415 0 0 -0.23032 0.138224 -0.0295032 0.0844744 0 0 0.39837 0 0 
199 1 199 0.299788 0.940449 0 0 -0.185628 0.0758206 -0.0351915 0.0377553 0 0 0.681249 0 0 
200 1 200 0.299779 0.980468 0 0 -0.0942423 0.0362402 -0.018581 0.013192 0 0 0.473294 0 0 
201 1 201 0.339994 0.0199988 0 0 0.000417592 -0.0174354 -0.00544919 -0.0214239 0 0 -0.12505 0 0 
202 1 202 0.339986 0.0599937 0 0 0.00829062 -0.0379774 -0.0095056 -0.00509 0 0 -0.399595 0 0 
203 1 203 0.339986 0.0999857 0 0 0.00725079 -0.0566239 -0.0158134 0.0104473 0 0 -0.493013 0 0 
204 1 204 0.33998 0.139975 0 0 -0.0118865 -0.0753093 -0.0279342 -0.0207552 0 0 -0.219917 0 0 
205 1 205 0.339963 0.179967 0 0 -0.0398809 -0.0516655 -0.0293308 -0.0267602 0 0 -0.0882518 0 0 
206 1 206 0.339938 0.219964 0 0 -0.0917549 -0.045926 -0.0441178 -0.045568 0 0 -0.170895 0 0 
207 1 207 0.339908 0.259968 0 0 -0.125163 -0.00677675 -0.0422749 -0.0382354 0 0 -1.50517 0 0 
208 1 208 0.339877 0.299978 0 0 -0.163603 -0.0124808 -0.0564282 -0.0466234 0 0 -1.89089 0 0 
209 1 209 0.339844 0.339989 0 0 -0.15212 0.0124478 -0.0447516 -0.0410505 0 0 -1.536 0 0 
210 1 210 0.339812 0.380003 0 0 -0.16055 0.00437798 -0.050042 -0.0337551 0 0 -1.14752 0 0 
211 1 211 0.339781 0.420017 0 0 -0.165196 0.0227646 -0.0456384 -0.0248624 0 0 -0.432066 0 0 
212 1 212 0.339757 0.460035 0 0 -0.163721 0.0514762 -0.0359668 0.00352081 0 0 -0.019949 0 0 
213 1 213 0.339739 0.500059 0 0 -0.184252 0.07568 -0.0347943 0.00707121 0 0 0.818511 0 0 
214 1 214 0.339721 0.540087 0 0 -0.192026 0.0996379 -0.0296037 0.0139163 0 0 0.645642 0 0 
215 1 215 0.3397 0.580119 0 0 -0.190589 0.113965 -0.0245493 -0.00101734 0 0 0.821259 0 0 
216 1 216 0.339676 0.620154 0 0 -0.17365 0.144643 -0.00928858 -0.000786974 0 0 0.283294 0 0 
217 1 217 0.339656 0.660188 0 0 -0.18199 0.110972 -0.0227501 0.00855779 0 0 0.0114812 0 0 
218 1 218 0.339642 0.700223 0 0 -0.171742 0.15267 -0.00610142 0.00509666 0 0 0.671555 0 0 
219 1 219 0.339637 0.74026 0 0 -0.204574 0.127207 -0.0247849 0.0364515 0 0 0.0510086 0 0 
220 1 220 0.339645 0.780298 0 0 -0.228267 0.152523 -0.0242637 0.042074 0 0 0.601651 0 0 
221 1 221 0.339664 0.820342 0 0 -0.244794 0.160847 -0.0268918 0.0706934 0 0 0.325716 0 0 
222 1 222 0.339697 0.860385 0 0 -0.243551 0.145935 -0.0312785 0.089876 0 0 -0.102315 0 0 
223 1 223 0.339731 0.900426 0 0 -0.220141 0.145121 -0.024033 0.060077 0 0 0.363244 0 0 
224 1 224 0.339752 0.940459 0 0 -0.179939 0.075316 -0.0335289 0.034679 0 0 0.0235553 0 0 
225 1 225 0.33976 0.980479 0 0 -0.100252 0.0425735 -0.0184759 -0.00161769 0 0 0.962168 0 0 
226 1 226 0.379996 0.0199997 0 0 0.00332942 -0.00719112 -0.00123187 -0.0166028 0 0 0.0597189 0 0 
227 1 227 0.379992 0.059995 0 0 0.00143199 -0.0415535 -0.0128485 0.000739228 0 0 0.0509381 0 0 
228 1 228 0.379992 0.0999888 0 0 0.00539828 -0.035038 -0.00949061 0.011971 0 0 -0.0675694 0 0 
229 1 229 0.379984 0.139982 0 0 -0.0226182 -0.0600839 -0.0264954 -0.0189668 0 0 -0.211556 0 0 
230 1 230 0.37996 0.179977 0 0 -0.0478388 -0.0319145 -0.0255527 -0.0347921 0 0 -0.078494 0 0 
231 1 231 0.379926 0.219977 0 0 -0.105469 -0.04013 -0.0466607 -0.045677 0 0 -0.147814 0 0 
232 1 232 0.379889 0.259983 0 0 -0.129891 0.00111768 -0.0412641 -0.032747 0 0 -1.45021 0 0 
233 1 233 0.379853 0.299994 0 0 -0.157278 0.00875213 -0.0475953 -0.0312096 0 0 -1.68571 0 0 
234 1 234 0.379818 0.340009 0 0 -0.16031 0.0211869 -0.0445794 -0.012633 0 0 -1.60129 0 0 
235 1 235 0.379786 0.380024 0 0 -0.158602 0.0195801 -0.044544 -0.0124464 0 0 -0.689019 0 0 
236 1 236 0.379754 0.420041 0 0 -0.148537 0.0506454 -0.0313575 0.000424182 0 0 0.328354 0 0 
237 1 237 0.379728 0.460061 0 0 -0.169238 0.0431579 -0.0403971 0.0228311 0 0 0.685912 0 0 
238 1 238 0.379707 0.500085 0 0 -0.171619 0.0956584 -0.0243339 0.0185835 0 0 1.59301 0 0 
239 1 239 0.379688 0.540114 0 0 -0.199366 0.0918302 -0.0344548 0.0315324 0 0 1.43656 0 0 
240 1 240 0.37967 0.580145 0 0 -0.222286 0.0872841 -0.0432612 0.012657 0 0 2.44372 0 0 
241 1 241 0.37965 0.620177 0 0 -0.224029 0.107003 -0.0375016 0.0126255 0 0 2.82706 0 0 
242 1 242 0.379633 0.660209 0 0 -0.258691 0.0526747 -0.0660362 0.0106383 0 0 3.30264 0 0 
243 1 243 0.379617 0.700239 0 0 -0.237109 0.09837 -0.04446 0.00447725 0 0 3.60624 0 0 
244 1 244 0.379606 0.740273 0 0 -0.246353 0.0796514 -0.0534262 0.0227688 0 0 2.45845 0 0 
245 1 245 0.379607 0.780307 0 0 -0.237526 0.123378 -0.0365757 0.0197936 0 0 2.52668 0 0 
246 1 246 0.37962 0.820345 0 0 -0.240748 0.119238 -0.0389358 0.0552536 0 0 1.30866 0 0 
247 1 247 0.379652 0.860383 0 0 -0.234062 0.131329 -0.0329208 0.0669938 0 0 0.560941 0 0 
248 1 248 0.379687 0.900421 0 0 -0.219668 0.120496 -0.0317778 0.04118 0 0 0.587008 0 0 
249 1 249 0.379718 0.940451 0 0 -0.186697 0.0609881 -0.0402899 0.0296532 0 0 -0.0947398 0 0 
250 1 250 0.379739 0.980471 0 0 -0.135443 0.0343458 -0.0323929 -0.0169284 0 0 1.85204 0 0 
251 1 251 0.419997 0.0199996 0 0 0.0114617 -0.00303204 0.00270674 -0.0123807 0 0 0.0735798 0 0 
252 1 252 0.419993 0.0599959 0 0 0.00773271 -0.0288838 -0.00676791 -0.000896228 0 0 -0.00372295 0 0 
253 1 253 0.419992 0.0999929 0 0 -0.00491431 -0.00983753 -0.00471924 0.00337781 0 0 0.196027 0 0 
254 1 254 0.41998 0.139991 0 0 -0.0484459 -0.0341812 -0.0264721 -0.0233099 0 0 -0.0171258 0 0 
255 1 255 0.419952 0.179992 0 0 -0.0655179 -0.00837544 -0.0236752 -0.0403044 0 0 -0.101157 0 0 
256 1 256 0.419911 0.219997 0 0 -0.101155 -0.0113776 -0.0360611 -0.0487862 0 0 -0.159719 0 0 
257 1 257 0.419866 0.260006 0 0 -0.133557 0.0135248 -0.038464 -0.0334339 0 0 -1.65688 0 0 
258 1 258 0.419825 0.30002 0 0 -0.165265 0.0191434 -0.0468283 -0.0260508 0 0 -1.60614 0 0 
259 1 259 0.419789 0.340037 0 0 -0.165812 0.0394985 -0.0404758 0.000506191 0 0 -1.24622 0 0 
260 1 260 0.419757 0.380055 0 0 -0.168179 0.0264428 -0.0454167 0.00105684 0 0 -0.168625 0 0 
261 1 261 0.419725 0.420074 0 0 -0.140063 0.0692065 -0.0226938 0.00940345 0 0 0.849014 0 0 
262 1 262 0.419697 0.460095 0 0 -0.152747 0.0502293 -0.0328434 0.023354 0 0 1.04769 0 0 
263 1 263 0.419672 0.500118 0 0 -0.138404 0.10228 -0.0115653 0.0193063 0 0 1.24206 0 0 
264 1 264 0.419648 0.540146 0 0 -0.135941 0.110242 -0.00822304 0.0256462 0 0 0.273925 0 0 
265 1 265 0.419624 0.580174 0 0 -0.125012 0.112101 -0.00412573 0.00738788 0 0 0.0187869 0 0 
266 1 266 0.419599 0.620202 0 0 -0.0896742 0.13412 0.0142444 0.00900616 0 0 -1.02538 0 0 
267 1 267 0.41958 0.660228 0 0 -0.0901147 0.10804 0.00574916 -0.00344155 0 0 -0.595373 0 0 
268 1 268 0.419564 0.700254 0 0 -0.0891213 0.131225 0.0134956 -0.00570989 0 0 -0.109932 0 0 
269 1 269 0.419556 0.740282 0 0 -0.131698 0.0998286 -0.0102035 0.00232787 0 0 -0.0937168 0 0 
270 1 270 0.419557 0.78031 0 0 -0.144875 0.130209 -0.00469212 0.00574479 0 0 0.923342 0 0 
271 1 271 0.419572 0.820341 0 0 -0.174571 0.100553 -0.0237127 0.0403803 0 0 0.558418 0 0 
272 1 272 0.419605 0.860372 0 0 -0.185261 0.119592 -0.0210412 0.0496857 0 0 0.523049 0 0 
273 1 273 0.419644 0.900404 0 0 -0.189907 0.0929652 -0.0310641 0.0385643 0 0 0.220361 0 0 
274 1 274 0.419683 0.94043 0 0 -0.176036 0.0574263 -0.038014 0.0314034 0 0 -0.31783 0 0 
275 1 275 0.419712 0.98045 0 0 -0.1639 0.0268101 -0.0439319 -0.0198765 0 0 2.05116 0 0 
276 1 276 0.459999 0.0199992 0 0 -0.0042367 -0.0132758 -0.00560691 -0.00589428 0 0 0.31139 0 0 
277 1 277 0.459997 0.0599971 0 0 -0.0173066 -0.0196029 -0.0118176 -0.00217243 0 0 0.386414 0 0 
278 1 278 0.459991 0.099998 0 0 -0.0374341 0.00320537 -0.0109605 -0.00326927 0 0 0.432501 0 0 
279 1 279 0.459973 0.140003 0 0 -0.0681953 0.00861124 -0.0190866 -0.0281887 0 0 0.0455724 0 0 
280 1 280 0.459939 0.180011 0 0 -0.0936194 0.011908 -0.0261794 -0.0440422 0 0 -0.113323 0 0 
281 1 281 0.459894 0.22002 0 0 -0.121335 0.00855267 -0.0361385 -0.0563499 0 0 0.0389913 0 0 
282 1 282 0.459843 0.260033 0 0 -0.146194 0.0220133 -0.0397923 -0.0444699 0 0 -1.18534 0 0 
283 1 283 0.459798 0.300049 0 0 -0.162695 0.0285719 -0.0429811 -0.0277386 0 0 -1.02748 0 0 
284 1 284 0.459761 0.340068 0 0 -0.151165 0.0595946 -0.0293391 -0.00126621 0 0 -0.571446 0 0 
285 1 285 0.459729 0.380088 0 0 -0.160312 0.0400897 -0.038521 -0.00236996 0 0 0.264219 0 0 
286 1 286 0.459698 0.420107 0 0 -0.140105 0.0678506 -0.0231428 0.0056758 0 0 1.10813 0 0 
287 1 287 0.459671 0.460129 0 0 -0.140182 0.0595787 -0.0258218 0.00979281 0 0 1.68322 0 0 
288 1 288 0.459645 0.50015 0 0 -0.13539 0.0849005 -0.0161729 0.00643132 0 0 1.78854 0 0 
289 1 289 0.459623 0.540175 0 0 -0.148544 0.0773137 -0.0228161 0.0137514 0 0 1.079 0 0 
290 1 290 0.459605 0.580198 0 0 -0.156274 0.0766582 -0.0255022 -0.00302197 0 0 1.61904 0 0 
291 1 291 0.459587 0.620221 0 0 -0.177026 0.0517007 -0.0401584 0.0011491 0 0 1.37933 0 0 
292 1 292 0.459571 0.660243 0 0 -0.187952 0.0404173 -0.0472797 -0.0145071 0 0 2.34912 0 0 
293 1 293 0.459553 0.700264 0 0 -0.177303 0.0521902 -0.0400916 -0.0151448 0 0 2.54428 0 0 
294 1 294 0.459539 0.740286 0 0 -0.185871 0.0434654 -0.0456347 -0.0162597 0 0 2.4099 0 0 
295 1 295 0.459533 0.780309 0 0 -0.164168 0.0783638 -0.0274914 -0.00028368 0 0 2.47553 0 0 
296 1 296 0.459544 0.820333 0 0 -0.173579 0.0541879 -0.0382564 0.0247556 0 0 1.87281 0 0 
297 1 297 0.459572 0.860357 0 0 -0.175636 0.0872332 -0.0283261 0.0376644 0 0 1.35148 0 0 
298 1 298 0.45961 0.900383 0 0 -0.187028 0.0576914 -0.0414486 0.0439077 0 0 0.471064 0 0 
299 1 299 0.459651 0.940405 0 0 -0.189697 0.0529973 -0.0438122 0.035198 0 0 0.373788 0 0 
300 1 300 0.459681 0.980426 0 0 -0.207901 0.0102569 -0.0633496 -0.00669932 0 0 2.03434 0 0 
301 1 301 0.499998 0.0199995 0 0 -0.00698193 -0.0131572 -0.00644909 -0.00539425 0 0 0.183694 0 0 
302 1 302 0.499992 0.0599988 0 0 -0.0255389 -0.00516087 -0.00982844 -0.0160727 0 0 0.349411 0 0 
303 1 303 0.499979 0.100004 0 0 -0.0737154 0.0167446 -0.0182494 -0.0259369 0 0 0.608328 0 0 
304 1 304 0.499956 0.140014 0 0 -0.114026 0.0281249 -0.0275214 -0.0425159 0 0 0.287117 0 0 
305 1 305 0.499919 0.180029 0 0 -0.121787 0.0361269 -0.027444 -0.0580978 0 0 -0.175281 0 0 
306 1 306 0.499871 0.220043 0 0 -0.129529 0.0245693 -0.0336292 -0.0702085 0 0 -0.357848 0 0 
307 1 307 0.499818 0.260058 0 0 -0.127708 0.043943 -0.0268337 -0.0651657 0 0 -0.907833 0 0 
308 1 308 0.499769 0.300075 0 0 -0.148565 0.0354452 -0.0362449 -0.0461869 0 0 -0.578478 0 0 
309 1 309 0.499731 0.340094 0 0 -0.149941 0.0538939 -0.0307719 -0.0218698 0 0 -0.273998 0 0 
310 1 310 0.4997 0.380113 0 0 -0.147718 0.0491763 -0.0315689 -0.0255667 0 0 0.833065 0 0 
311 1 311 0.499671 0.420133 0 0 -0.127495 0.0638444 -0.0203848 -0.0178352 0 0 1.61825 0 0 
312 1 312 0.499644 0.460153 0 0 -0.121359 0.0604415 -0.0195138 -0.0233313 0 0 1.80787 0 0 
313 1 313 0.499617 0.500172 0 0 -0.106174 0.0803885 -0.0082583 -0.0287446 0 0 1.16736 0 0 
314 1 314 0.499592 0.540193 0 0 -0.0946613 0.0792316 -0.00493582 -0.019782 0 0 -0.229334 0 0 
315 1 315 0.499569 0.580213 0 0 -0.0643737 0.0938494 0.00945394 -0.0307894 0 0 -0.831413 0 0 
316 1 316 0.499548 0.620232 0 0 -0.0353583 0.0932343 0.0185499 -0.0274035 0 0 -1.94599 0 0 
317 1 317 0.49953 0.660249 0 0 -0.0216531 0.0990757 0.0248103 -0.0404827 0 0 -1.58736 0 0 
318 1 318 0.499513 0.700267 0 0 -0.0317834 0.0950834 0.0202855 -0.0381934 0 0 -1.21684 0 0 
319 1 319 0.4995 0.740285 0 0 -0.0649587 0.0801579 0.00487743 -0.0412326 0 0 -0.00370305 0 0 
320 1 320 0.499498 0.780303 0 0 -0.0776484 0.0801833 0.000817303 -0.00311885 0 0 0.46381 0 0 
321 1 321 0.499512 0.820321 0 0 -0.106519 0.0539237 -0.0168449 0.00845258 0 0 1.30402 0 0 
322 1 322 0.499537 0.86034 0 0 -0.130741 0.0759287 -0.0175581 0.0328912 0 0 1.14116 0 0 
323 1 323 0.499576 0.900362 0 0 -0.161044 0.0502376 -0.035506 0.0491629 0 0 0.23579 0 0 
324 1 324 0.499616 0.940383 0 0 -0.174061 0.0684814 -0.0338335 0.0343254 0 0 0.685042 0 0 
325 1 325 0.499647 0.980405 0 0 -0.197961 0.0146299 -0.058759 0.00731586 0 0 1.0876 0 0 