ITEM: TIMESTEP
0
ITEM: NUMBER OF ATOMS
7127
ITEM: BOX BOUNDS sm sm sm
0 4
0 2
0 0
ITEM: ATOMS id type tag x y z vx 
0 1 0 0 0 0 0 
1 1 1 0 0.04 0 0 
2 1 2 0 0.08 0 0 
3 1 3 0 0.12 0 0 
4 1 4 0 0.16 0 0 
5 1 5 0 0.2 0 0 
6 1 6 0 0.24 0 0 
7 1 7 0 0.28 0 0 
8 1 8 0 0.32 0 0 
9 1 9 0 0.36 0 0 
10 1 10 0 0.4 0 0 
11 1 11 0 0.44 0 0 
12 1 12 0 0.48 0 0 
13 1 13 0 0.52 0 0 
14 1 14 0 0.56 0 0 
15 1 15 0 0.6 0 0 
16 1 16 0 0.64 0 0 
17 1 17 0 0.68 0 0 
18 1 18 0 0.72 0 0 
19 1 19 0 0.76 0 0 
20 1 20 0 0.8 0 0 
21 1 21 0 0.84 0 0 
22 1 22 0 0.88 0 0 
23 1 23 0 0.92 0 0 
24 1 24 0 0.96 0 0 
25 1 25 0 1 0 0 
26 1 26 0.04 0 0 0 
27 1 27 0.0400001 0.0399998 0 0.176644 
28 1 28 0.0400018 0.0800001 0 0.222493 
29 1 29 0.0400051 0.119997 0 0.239863 
30 1 30 0.0400069 0.159992 0 0.228554 
31 1 31 0.0400048 0.199989 0 0.123418 
32 1 32 0.0400028 0.239986 0 0.119016 
33 1 33 0.0399978 0.279985 0 0.155599 
34 1 34 0.0399966 0.319986 0 0.127462 
35 1 35 0.0399936 0.359986 0 0.0801151 
36 1 36 0.0399925 0.399986 0 0.0197099 
37 1 37 0.0399909 0.439984 0 -0.0879713 
38 1 38 0.0399908 0.479983 0 -0.155166 
39 1 39 0.0399885 0.519982 0 -0.18238 
40 1 40 0.0399886 0.559983 0 -0.309136 
41 1 41 0.0399878 0.599984 0 -0.280038 
42 1 42 0.0399869 0.639985 0 -0.290418 
43 1 43 0.0399854 0.679986 0 -0.379217 
44 1 44 0.039986 0.719986 0 -0.194632 
45 1 45 0.0399796 0.759988 0 -0.124284 
46 1 46 0.0399828 0.79999 0 0.0283226 
47 1 47 0.0399807 0.839993 0 0.500345 
48 1 48 0.0399811 0.879999 0 0.592301 
49 1 49 0.0399817 0.920002 0 0.512631 
50 1 50 0.0399836 0.960003 0 0.461898 
51 1 51 0.0399763 1.00002 0 0.384777 
52 1 52 0.08 0 0 0 
53 1 53 0.08 0.0400001 0 0.275237 
54 1 54 0.0800046 0.0799997 0 0.456784 
55 1 55 0.0800127 0.119996 0 0.537027 
56 1 56 0.0800145 0.159989 0 0.618418 
57 1 57 0.0800087 0.199983 0 0.654805 
58 1 58 0.0800046 0.239979 0 0.684935 
59 1 59 0.0799939 0.279977 0 0.629742 
60 1 60 0.0799919 0.319977 0 0.418567 
61 1 61 0.0799861 0.359977 0 0.14626 
62 1 62 0.0799872 0.399976 0 -0.169351 
63 1 63 0.0799833 0.439974 0 -0.419672 
64 1 64 0.0799832 0.479973 0 -0.511255 
65 1 65 0.0799762 0.519971 0 -0.385646 
66 1 66 0.0799761 0.559972 0 -0.395741 
67 1 67 0.0799727 0.599972 0 -0.301204 
68 1 68 0.079973 0.639972 0 -0.3653 
69 1 69 0.0799693 0.679972 0 -0.581432 
70 1 70 0.0799686 0.719972 0 -0.529 
71 1 71 0.0799614 0.759975 0 -0.468592 
72 1 72 0.0799615 0.799979 0 -0.0605376 
73 1 73 0.0799582 0.839986 0 0.535806 
74 1 74 0.079961 0.879992 0 0.768829 
75 1 75 0.0799667 0.919998 0 1.09362 
76 1 76 0.0799593 0.960008 0 1.02723 
77 1 77 0.0799619 1.00001 0 0.679568 
78 1 78 0.12 0 0 0 
79 1 79 0.120001 0.0400004 0 0.387807 
80 1 80 0.120008 0.0800003 0 0.634305 
81 1 81 0.120018 0.119995 0 0.824577 
82 1 82 0.12002 0.159989 0 1.13134 
83 1 83 0.120013 0.199982 0 1.4009 
84 1 84 0.120005 0.239977 0 1.48473 
85 1 85 0.119991 0.279973 0 1.36401 
86 1 86 0.119986 0.319973 0 0.968683 
87 1 87 0.11998 0.359971 0 0.40383 
88 1 88 0.11998 0.399972 0 -0.262726 
89 1 89 0.119977 0.439969 0 -0.66027 
90 1 90 0.119974 0.479969 0 -0.751315 
91 1 91 0.119968 0.519964 0 -0.490609 
92 1 92 0.119964 0.559965 0 -0.301502 
93 1 93 0.119963 0.599962 0 -0.196241 
94 1 94 0.11996 0.639963 0 -0.363574 
95 1 95 0.119959 0.67996 0 -0.698837 
96 1 96 0.119953 0.719964 0 -0.857301 
97 1 97 0.119946 0.759965 0 -0.953018 
98 1 98 0.119943 0.799971 0 -0.339296 
99 1 99 0.119936 0.839978 0 0.423933 
100 1 100 0.119941 0.879985 0 0.826049 
101 1 101 0.119945 0.919994 0 1.55503 
102 1 102 0.119941 0.960002 0 1.54697 
103 1 103 0.11994 1.00002 0 1.04037 
104 1 104 0.16 0 0 0 
105 1 105 0.160002 0.0400019 0 0.448329 
106 1 106 0.160012 0.0799993 0 0.834346 
107 1 107 0.160022 0.119993 0 1.26476 
108 1 108 0.160024 0.159989 0 1.74475 
109 1 109 0.160016 0.199981 0 2.1217 
110 1 110 0.160003 0.239976 0 2.25935 
111 1 111 0.159988 0.279972 0 2.12345 
112 1 112 0.15998 0.319969 0 1.61352 
113 1 113 0.159974 0.359968 0 0.807666 
114 1 114 0.159973 0.399968 0 -0.141023 
115 1 115 0.159971 0.439966 0 -0.723731 
116 1 116 0.159964 0.479964 0 -0.837075 
117 1 117 0.159957 0.519961 0 -0.565073 
118 1 118 0.159952 0.559958 0 -0.250523 
119 1 119 0.159947 0.599955 0 -0.126553 
120 1 120 0.159945 0.639955 0 -0.3867 
121 1 121 0.15994 0.679954 0 -0.800529 
122 1 122 0.159934 0.719955 0 -1.11374 
123 1 123 0.159924 0.75996 0 -1.28003 
124 1 124 0.159921 0.799964 0 -0.719451 
125 1 125 0.159915 0.839973 0 0.187531 
126 1 126 0.159919 0.879982 0 0.962492 
127 1 127 0.159922 0.919991 0 1.8358 
128 1 128 0.159916 0.960004 0 1.79406 
129 1 129 0.159918 1.00001 0 1.28602 
130 1 130 0.2 0 0 0 
131 1 131 0.200005 0.0400002 0 0.375168 
132 1 132 0.200016 0.0799963 0 0.970189 
133 1 133 0.200025 0.119992 0 1.62328 
134 1 134 0.200026 0.159988 0 2.19638 
135 1 135 0.200017 0.199982 0 2.73716 
136 1 136 0.200002 0.239976 0 2.99888 
137 1 137 0.199986 0.279972 0 2.85748 
138 1 138 0.199976 0.319967 0 2.28016 
139 1 139 0.199969 0.359966 0 1.29137 
140 1 140 0.199968 0.399964 0 0.181918 
141 1 141 0.199963 0.439963 0 -0.570268 
142 1 142 0.199958 0.479961 0 -0.782298 
143 1 143 0.199948 0.519957 0 -0.530734 
144 1 144 0.199943 0.559954 0 -0.149349 
145 1 145 0.199935 0.599949 0 0.03984 
146 1 146 0.199933 0.639949 0 -0.251813 
147 1 147 0.199928 0.679948 0 -0.703577 
148 1 148 0.199919 0.719952 0 -1.20472 
149 1 149 0.199909 0.759954 0 -1.42075 
150 1 150 0.1999 0.799963 0 -1.00313 
151 1 151 0.199895 0.839969 0 -0.203895 
152 1 152 0.199896 0.87998 0 0.881974 
153 1 153 0.199896 0.919994 0 1.90027 
154 1 154 0.199892 0.960004 0 1.99753 
155 1 155 0.199895 1.00002 0 1.66727 
156 1 156 0.24 0 0 0 
157 1 157 0.240007 0.0399978 0 0.38127 
158 1 158 0.240019 0.0799935 0 1.09607 
159 1 159 0.240025 0.119991 0 1.84662 
160 1 160 0.240026 0.159987 0 2.50187 
161 1 161 0.240017 0.199982 0 3.18604 
162 1 162 0.240002 0.239978 0 3.48501 
163 1 163 0.239986 0.279972 0 3.34521 
164 1 164 0.239973 0.319968 0 2.76281 
165 1 165 0.239965 0.359965 0 1.67955 
166 1 166 0.239962 0.399964 0 0.492121 
167 1 167 0.239955 0.439961 0 -0.367336 
168 1 168 0.239949 0.47996 0 -0.689438 
169 1 169 0.239937 0.519954 0 -0.49875 
170 1 170 0.239929 0.559951 0 -0.0908384 
171 1 171 0.239919 0.599946 0 0.135575 
172 1 172 0.239912 0.639944 0 -0.182667 
173 1 173 0.239904 0.679945 0 -0.615971 
174 1 174 0.239893 0.719949 0 -1.21404 
175 1 175 0.239885 0.759953 0 -1.48669 
176 1 176 0.239876 0.799959 0 -1.10206 
177 1 177 0.23987 0.839968 0 -0.355693 
178 1 178 0.239868 0.879977 0 0.723687 
179 1 179 0.239867 0.919991 0 1.67805 
180 1 180 0.239866 0.960003 0 2.07086 
181 1 181 0.239866 1.00002 0 2.04854 
182 1 182 0.28 0 0 0 
183 1 183 0.28001 0.0399959 0 0.472008 
184 1 184 0.28002 0.0799916 0 1.21718 
185 1 185 0.280024 0.119988 0 1.99452 
186 1 186 0.280024 0.159987 0 2.63999 
187 1 187 0.280016 0.199983 0 3.26652 
188 1 188 0.280002 0.23998 0 3.53562 
189 1 189 0.279986 0.279974 0 3.48719 
190 1 190 0.279973 0.31997 0 2.97996 
191 1 191 0.279964 0.359965 0 1.95774 
192 1 192 0.279958 0.399962 0 0.85051 
193 1 193 0.279949 0.43996 0 -0.0566385 
194 1 194 0.279942 0.479957 0 -0.453061 
195 1 195 0.279928 0.519954 0 -0.392771 
196 1 196 0.27992 0.559948 0 -0.0881943 
197 1 197 0.279906 0.599945 0 0.207986 
198 1 198 0.279897 0.639943 0 -0.083235 
199 1 199 0.279888 0.679944 0 -0.519275 
200 1 200 0.279876 0.719949 0 -1.12779 
201 1 201 0.279866 0.759954 0 -1.45628 
202 1 202 0.279855 0.799961 0 -1.19635 
203 1 203 0.279848 0.839967 0 -0.492476 
204 1 204 0.27984 0.879978 0 0.518334 
205 1 205 0.279838 0.919988 0 1.37658 
206 1 206 0.279837 0.960002 0 2.06836 
207 1 207 0.279835 1.00002 0 2.30827 
208 1 208 0.32 0 0 0 
209 1 209 0.320011 0.0399941 0 0.628386 
210 1 210 0.320018 0.07999 0 1.36761 
211 1 211 0.32002 0.119987 0 2.05131 
212 1 212 0.320019 0.159987 0 2.56976 
213 1 213 0.320012 0.199985 0 3.03232 
214 1 214 0.320001 0.239982 0 3.25569 
215 1 215 0.319987 0.279977 0 3.27209 
216 1 216 0.319974 0.319972 0 2.82314 
217 1 217 0.319962 0.359967 0 1.95285 
218 1 218 0.319953 0.399963 0 1.03879 
219 1 219 0.319942 0.439961 0 0.19276 
220 1 220 0.319933 0.479957 0 -0.226439 
221 1 221 0.319917 0.519954 0 -0.235668 
222 1 222 0.319905 0.559951 0 -0.0938873 
223 1 223 0.31989 0.599946 0 0.140615 
224 1 224 0.319874 0.639946 0 -0.0681611 
225 1 225 0.31986 0.679946 0 -0.487036 
226 1 226 0.319847 0.719951 0 -1.08296 
227 1 227 0.319838 0.759955 0 -1.37042 
228 1 228 0.319827 0.799962 0 -1.24138 
229 1 229 0.31982 0.839969 0 -0.677485 
230 1 230 0.31981 0.879977 0 0.245728 
231 1 231 0.319806 0.919988 0 1.11871 
232 1 232 0.319802 0.960002 0 2.03368 
233 1 233 0.319796 1.00002 0 2.39665 
234 1 234 0.36 0 0 0 
235 1 235 0.360011 0.0399929 0 0.816215 
236 1 236 0.360014 0.0799894 0 1.52946 
237 1 237 0.360014 0.119987 0 2.01266 
238 1 238 0.360012 0.159987 0 2.33395 
239 1 239 0.360007 0.199987 0 2.58264 
240 1 240 0.359999 0.239985 0 2.70484 
241 1 241 0.359986 0.27998 0 2.69292 
242 1 242 0.359975 0.319975 0 2.30939 
243 1 243 0.359962 0.359968 0 1.72763 
244 1 244 0.35995 0.399964 0 1.08436 
245 1 245 0.359936 0.439959 0 0.420659 
246 1 246 0.359924 0.479956 0 0.0120362 
247 1 247 0.359908 0.519952 0 -0.10262 
248 1 248 0.359894 0.55995 0 -0.0369853 
249 1 249 0.359876 0.599949 0 0.0370755 
250 1 250 0.359861 0.639949 0 -0.211782 
251 1 251 0.359846 0.679954 0 -0.539991 
252 1 252 0.35983 0.719957 0 -1.11835 
253 1 253 0.359821 0.759963 0 -1.37755 
254 1 254 0.359805 0.799967 0 -1.29525 
255 1 255 0.359796 0.839973 0 -0.853733 
256 1 256 0.359781 0.879982 0 -0.0298237 
257 1 257 0.359774 0.919991 0 0.847931 
258 1 258 0.359765 0.960008 0 1.81407 
259 1 259 0.359755 1.00003 0 2.16595 
260 1 260 0.4 0 0 0 
261 1 261 0.400007 0.0399926 0 0.987345 
262 1 262 0.400007 0.0799892 0 1.64133 
263 1 263 0.400005 0.119987 0 1.89431 
264 1 264 0.400002 0.159988 0 1.97624 
265 1 265 0.399998 0.199988 0 1.94847 
266 1 266 0.399994 0.239988 0 1.93007 
267 1 267 0.399984 0.279984 0 1.89472 
268 1 268 0.399975 0.319978 0 1.63016 
269 1 269 0.39996 0.359971 0 1.34245 
270 1 270 0.399945 0.399965 0 0.91843 
271 1 271 0.399927 0.439959 0 0.493453 
272 1 272 0.399911 0.479957 0 0.244645 
273 1 273 0.399892 0.519955 0 0.0383907 
274 1 274 0.399877 0.559953 0 -0.0421361 
275 1 275 0.399856 0.599954 0 -0.0648225 
276 1 276 0.399835 0.639956 0 -0.385947 
277 1 277 0.399817 0.67996 0 -0.715003 
278 1 278 0.399799 0.719965 0 -1.21619 
279 1 279 0.399789 0.759969 0 -1.46155 
280 1 280 0.399775 0.799976 0 -1.42125 
281 1 281 0.399765 0.839981 0 -1.02926 
282 1 282 0.399749 0.87999 0 -0.269917 
283 1 283 0.399737 0.920001 0 0.572695 
284 1 284 0.399724 0.960018 0 1.46156 
285 1 285 0.399711 1.00004 0 1.74069 
286 1 286 0.44 0 0 0 
287 1 287 0.440003 0.039992 0 0.988578 
288 1 288 0.439999 0.0799888 0 1.52743 
289 1 289 0.439994 0.119987 0 1.6547 
290 1 290 0.43999 0.159988 0 1.61435 
291 1 291 0.439987 0.199989 0 1.41158 
292 1 292 0.439988 0.239989 0 1.25795 
293 1 293 0.439981 0.279986 0 1.13126 
294 1 294 0.439974 0.319981 0 0.925385 
295 1 295 0.439958 0.359973 0 0.856498 
296 1 296 0.43994 0.399966 0 0.663793 
297 1 297 0.439919 0.43996 0 0.469342 
298 1 298 0.4399 0.479955 0 0.317127 
299 1 299 0.43988 0.519954 0 0.0675187 
300 1 300 0.43986 0.559955 0 -0.204305 
301 1 301 0.439839 0.599958 0 -0.379659 
302 1 302 0.43982 0.639962 0 -0.656349 
303 1 303 0.439801 0.679968 0 -0.967852 
304 1 304 0.439784 0.719974 0 -1.35546 
305 1 305 0.439771 0.759981 0 -1.51113 
306 1 306 0.439753 0.799987 0 -1.53686 
307 1 307 0.439739 0.839994 0 -1.19339 
308 1 308 0.439718 0.880004 0 -0.506174 
309 1 309 0.4397 0.920014 0 0.195036 
310 1 310 0.439682 0.960033 0 0.933875 
311 1 311 0.439667 1.00005 0 1.15301 
312 1 312 0.48 0 0 0 
313 1 313 0.479995 0.0399922 0 0.828772 
314 1 314 0.479989 0.0799885 0 1.26577 
315 1 315 0.479983 0.119987 0 1.36829 
316 1 316 0.479979 0.159987 0 1.24954 
317 1 317 0.479976 0.199989 0 0.956718 
318 1 318 0.479979 0.239989 0 0.723078 
319 1 319 0.479976 0.279988 0 0.500147 
320 1 320 0.47997 0.319984 0 0.327132 
321 1 321 0.479954 0.359977 0 0.357847 
322 1 322 0.479933 0.39997 0 0.344168 
323 1 323 0.479908 0.439963 0 0.365619 
324 1 324 0.479883 0.479959 0 0.215819 
325 1 325 0.47986 0.519958 0 -0.0277836 
326 1 326 0.479837 0.559959 0 -0.330208 
327 1 327 0.479814 0.599965 0 -0.675461 
328 1 328 0.479791 0.639969 0 -0.961994 
329 1 329 0.479768 0.679976 0 -1.2102 
330 1 330 0.479749 0.719982 0 -1.49449 
331 1 331 0.479735 0.75999 0 -1.57564 
332 1 332 0.479717 0.799999 0 -1.62328 
333 1 333 0.479702 0.840006 0 -1.34284 
334 1 334 0.47968 0.880019 0 -0.782829 
335 1 335 0.47966 0.920031 0 -0.244957 
336 1 336 0.479639 0.960048 0 0.375387 
337 1 337 0.479624 1.00007 0 0.572488 
338 1 338 0.52 0 0 0 
339 1 339 0.51999 0.0399919 0 0.514914 
340 1 340 0.51998 0.0799871 0 0.854308 
341 1 341 0.519972 0.119985 0 1.0287 
342 1 342 0.519968 0.159985 0 0.930652 
343 1 343 0.519965 0.199986 0 0.608973 
344 1 344 0.519969 0.239988 0 0.342992 
345 1 345 0.519968 0.279988 0 0.0662038 
346 1 346 0.519964 0.319985 0 -0.0724679 
347 1 347 0.519947 0.35998 0 -0.0114906 
348 1 348 0.519926 0.399973 0 0.0339782 
349 1 349 0.519898 0.439967 0 0.198363 
350 1 350 0.519869 0.479962 0 0.0746283 
351 1 351 0.519843 0.519961 0 -0.176469 
352 1 352 0.519816 0.559962 0 -0.580108 
353 1 353 0.519794 0.599968 0 -1.05704 
354 1 354 0.519772 0.639975 0 -1.28808 
355 1 355 0.519751 0.679983 0 -1.44398 
356 1 356 0.519731 0.719992 0 -1.58502 
357 1 357 0.519711 0.760001 0 -1.59119 
358 1 358 0.519691 0.800012 0 -1.61839 
359 1 359 0.519671 0.840022 0 -1.36864 
360 1 360 0.519645 0.880035 0 -1.00687 
361 1 361 0.519622 0.920047 0 -0.669425 
362 1 362 0.519596 0.960065 0 -0.168903 
363 1 363 0.51958 1.00008 0 -0.00576512 
364 1 364 0.56 0 0 0 
365 1 365 0.559983 0.0399913 0 0.0985003 
366 1 366 0.559973 0.0799849 0 0.300458 
367 1 367 0.559963 0.119983 0 0.582548 
368 1 368 0.559958 0.159982 0 0.6319 
369 1 369 0.559954 0.199983 0 0.398293 
370 1 370 0.559958 0.239985 0 0.149174 
371 1 371 0.559958 0.279987 0 -0.172273 
372 1 372 0.559954 0.319986 0 -0.346109 
373 1 373 0.559937 0.359983 0 -0.311648 
374 1 374 0.559914 0.399979 0 -0.268844 
375 1 375 0.559883 0.439973 0 -0.0712448 
376 1 376 0.55985 0.47997 0 -0.133957 
377 1 377 0.55982 0.51997 0 -0.320254 
378 1 378 0.55979 0.559972 0 -0.797729 
379 1 379 0.559765 0.599977 0 -1.34636 
380 1 380 0.559738 0.639983 0 -1.52775 
381 1 381 0.559711 0.679991 0 -1.63096 
382 1 382 0.55969 0.719999 0 -1.63701 
383 1 383 0.559668 0.76001 0 -1.56183 
384 1 384 0.559647 0.800023 0 -1.57258 
385 1 385 0.559627 0.840036 0 -1.36598 
386 1 386 0.559603 0.880051 0 -1.16249 
387 1 387 0.55958 0.920063 0 -0.966544 
388 1 388 0.559554 0.96008 0 -0.632261 
389 1 389 0.559537 1.0001 0 -0.567692 
390 1 390 0.6 0 0 0 
391 1 391 0.59998 0.03999 0 -0.237914 
392 1 392 0.599967 0.079983 0 -0.147002 
393 1 393 0.599955 0.11998 0 0.170118 
394 1 394 0.59995 0.159977 0 0.28368 
395 1 395 0.599945 0.199978 0 0.104456 
396 1 396 0.599945 0.239979 0 -0.146453 
397 1 397 0.599945 0.279982 0 -0.469926 
398 1 398 0.599939 0.319984 0 -0.669679 
399 1 399 0.599925 0.359984 0 -0.690923 
400 1 400 0.599902 0.399981 0 -0.57999 
401 1 401 0.59987 0.439979 0 -0.312095 
402 1 402 0.599837 0.479976 0 -0.324245 
403 1 403 0.599804 0.519976 0 -0.425756 
404 1 404 0.599769 0.559979 0 -0.888914 
405 1 405 0.599744 0.599985 0 -1.45138 
406 1 406 0.599718 0.639993 0 -1.65633 
407 1 407 0.599693 0.680001 0 -1.73439 
408 1 408 0.599668 0.720011 0 -1.62674 
409 1 409 0.59964 0.760023 0 -1.48983 
410 1 410 0.599615 0.800036 0 -1.42533 
411 1 411 0.599591 0.840051 0 -1.22759 
412 1 412 0.599565 0.880067 0 -1.12068 
413 1 413 0.599541 0.920081 0 -1.00158 
414 1 414 0.599513 0.960099 0 -0.90073 
415 1 415 0.599495 1.00012 0 -1.00625 
416 1 416 0.64 0 0 0 
417 1 417 0.639975 0.0399891 0 -0.510724 
418 1 418 0.639963 0.0799808 0 -0.531546 
419 1 419 0.63995 0.119975 0 -0.289117 
420 1 420 0.639944 0.159972 0 -0.173015 
421 1 421 0.639936 0.199972 0 -0.296757 
422 1 422 0.639933 0.239974 0 -0.564966 
423 1 423 0.639929 0.279977 0 -0.880768 
424 1 424 0.639922 0.319981 0 -1.07729 
425 1 425 0.639907 0.359985 0 -1.1366 
426 1 426 0.639884 0.399985 0 -0.990689 
427 1 427 0.639851 0.439986 0 -0.688806 
428 1 428 0.639816 0.479986 0 -0.614222 
429 1 429 0.639779 0.519989 0 -0.607059 
430 1 430 0.639743 0.559993 0 -1.00271 
431 1 431 0.639714 0.599998 0 -1.51922 
432 1 432 0.639681 0.640005 0 -1.77556 
433 1 433 0.63965 0.680012 0 -1.8548 
434 1 434 0.639621 0.720021 0 -1.66995 
435 1 435 0.639592 0.760034 0 -1.46453 
436 1 436 0.639566 0.800048 0 -1.24769 
437 1 437 0.639543 0.840065 0 -1.01644 
438 1 438 0.639519 0.880083 0 -0.963395 
439 1 439 0.639498 0.9201 0 -0.896666 
440 1 440 0.639471 0.960118 0 -1.06049 
441 1 441 0.639454 1.00014 0 -1.3575 
442 1 442 0.68 0 0 0 
443 1 443 0.679976 0.0399883 0 -0.57027 
444 1 444 0.679961 0.0799777 0 -0.746991 
445 1 445 0.679945 0.119971 0 -0.747124 
446 1 446 0.679938 0.159967 0 -0.747165 
447 1 447 0.679927 0.199966 0 -0.862881 
448 1 448 0.67992 0.239967 0 -1.13628 
449 1 449 0.679912 0.279971 0 -1.46256 
450 1 450 0.679902 0.319976 0 -1.7229 
451 1 451 0.679886 0.359982 0 -1.84191 
452 1 452 0.679864 0.399986 0 -1.68874 
453 1 453 0.679834 0.439991 0 -1.31716 
454 1 454 0.6798 0.479994 0 -1.01194 
455 1 455 0.679763 0.519998 0 -0.877522 
456 1 456 0.679724 0.560003 0 -1.20595 
457 1 457 0.679693 0.60001 0 -1.61526 
458 1 458 0.679661 0.640019 0 -1.92021 
459 1 459 0.679633 0.680027 0 -1.98437 
460 1 460 0.679598 0.720038 0 -1.72272 
461 1 461 0.679563 0.76005 0 -1.46263 
462 1 462 0.679532 0.800065 0 -1.09393 
463 1 463 0.679505 0.840083 0 -0.79718 
464 1 464 0.67948 0.880102 0 -0.712585 
465 1 465 0.679458 0.920121 0 -0.667005 
466 1 466 0.679433 0.96014 0 -1.06698 
467 1 467 0.679416 1.00016 0 -1.51475 
468 1 468 0.72 0 0 0 
469 1 469 0.719974 0.0399875 0 -0.474533 
470 1 470 0.719959 0.0799757 0 -0.813647 
471 1 471 0.719943 0.119968 0 -1.08598 
472 1 472 0.719932 0.159962 0 -1.29881 
473 1 473 0.719919 0.199961 0 -1.5626 
474 1 474 0.719906 0.239961 0 -1.89288 
475 1 475 0.719893 0.279966 0 -2.23435 
476 1 476 0.719879 0.319973 0 -2.51707 
477 1 477 0.719862 0.359981 0 -2.6178 
478 1 478 0.719838 0.399989 0 -2.48575 
479 1 479 0.719808 0.439998 0 -2.16256 
480 1 480 0.719772 0.480005 0 -1.73334 
481 1 481 0.719733 0.520013 0 -1.46717 
482 1 482 0.719696 0.560019 0 -1.57791 
483 1 483 0.719661 0.600026 0 -1.75817 
484 1 484 0.719623 0.640033 0 -2.11002 
485 1 485 0.719588 0.68004 0 -2.23334 
486 1 486 0.71955 0.720051 0 -1.96458 
487 1 487 0.719515 0.760064 0 -1.61808 
488 1 488 0.719484 0.800081 0 -1.06921 
489 1 489 0.719458 0.8401 0 -0.694402 
490 1 490 0.719435 0.880121 0 -0.540605 
491 1 491 0.719415 0.920143 0 -0.491934 
492 1 492 0.719395 0.960161 0 -1.01749 
493 1 493 0.71938 1.00018 0 -1.52026 
494 1 494 0.76 0 0 0 
495 1 495 0.759977 0.0399862 0 -0.3533 
496 1 496 0.759957 0.0799744 0 -0.857191 
497 1 497 0.759939 0.119965 0 -1.41513 
498 1 498 0.759926 0.159959 0 -1.83707 
499 1 499 0.75991 0.199957 0 -2.21512 
500 1 500 0.759893 0.239957 0 -2.54801 
501 1 501 0.759873 0.279962 0 -2.90054 
502 1 502 0.759854 0.319969 0 -3.26946 
503 1 503 0.759834 0.35998 0 -3.43818 
504 1 504 0.75981 0.399991 0 -3.34893 
505 1 505 0.759783 0.440003 0 -3.05293 
506 1 506 0.75975 0.480012 0 -2.56205 
507 1 507 0.759712 0.520021 0 -2.22759 
508 1 508 0.759674 0.560029 0 -2.18139 
509 1 509 0.759637 0.600038 0 -2.21925 
510 1 510 0.759602 0.640048 0 -2.53494 
511 1 511 0.75957 0.680058 0 -2.55933 
512 1 512 0.759528 0.720071 0 -2.23546 
513 1 513 0.75949 0.760084 0 -1.83384 
514 1 514 0.759454 0.8001 0 -1.17819 
515 1 515 0.759423 0.84012 0 -0.748318 
516 1 516 0.759399 0.880141 0 -0.529042 
517 1 517 0.759379 0.920163 0 -0.455127 
518 1 518 0.759361 0.960182 0 -0.93549 
519 1 519 0.759346 1.0002 0 -1.3662 
520 1 520 0.8 0 0 0 
521 1 521 0.799976 0.0399863 0 -0.22002 
522 1 522 0.799955 0.0799735 0 -0.822343 
523 1 523 0.799937 0.119964 0 -1.62063 
524 1 524 0.799919 0.159958 0 -2.27304 
525 1 525 0.799899 0.199956 0 -2.76544 
526 1 526 0.799876 0.239957 0 -3.08968 
527 1 527 0.799851 0.279962 0 -3.40021 
528 1 528 0.799828 0.31997 0 -3.76118 
529 1 529 0.799804 0.359983 0 -4.03263 
530 1 530 0.799777 0.399996 0 -4.08103 
531 1 531 0.799747 0.440011 0 -3.89354 
532 1 532 0.799713 0.480023 0 -3.44427 
533 1 533 0.799675 0.520035 0 -3.01911 
534 1 534 0.79964 0.560044 0 -2.72328 
535 1 535 0.799601 0.600053 0 -2.5576 
536 1 536 0.79956 0.640062 0 -2.78342 
537 1 537 0.799521 0.680072 0 -2.80223 
538 1 538 0.799478 0.720085 0 -2.56251 
539 1 539 0.799442 0.760101 0 -2.14867 
540 1 540 0.799408 0.800118 0 -1.4342 
541 1 541 0.79938 0.840138 0 -0.993653 
542 1 542 0.799358 0.880159 0 -0.722985 
543 1 543 0.79934 0.920181 0 -0.565594 
544 1 544 0.799326 0.9602 0 -0.848242 
545 1 545 0.799311 1.00022 0 -1.11766 
546 1 546 0.84 0 0 0 
547 1 547 0.839978 0.0399859 0 -0.169245 
548 1 548 0.839952 0.0799733 0 -0.866493 
549 1 549 0.83993 0.119964 0 -1.79701 
550 1 550 0.839908 0.159959 0 -2.57265 
551 1 551 0.839887 0.199957 0 -3.1273 
552 1 552 0.839859 0.239958 0 -3.43533 
553 1 553 0.839829 0.279964 0 -3.70741 
554 1 554 0.8398 0.319973 0 -4.01417 
555 1 555 0.839772 0.359986 0 -4.33878 
556 1 556 0.839744 0.400001 0 -4.50784 
557 1 557 0.839717 0.440017 0 -4.44456 
558 1 558 0.839686 0.480031 0 -4.09395 
559 1 559 0.839651 0.520043 0 -3.63878 
560 1 560 0.839613 0.560053 0 -3.21159 
561 1 561 0.839573 0.600064 0 -2.93235 
562 1 562 0.839536 0.640076 0 -3.01588 
563 1 563 0.839501 0.68009 0 -2.97403 
564 1 564 0.839458 0.720105 0 -2.7581 
565 1 565 0.83942 0.760121 0 -2.31654 
566 1 566 0.839382 0.800138 0 -1.65948 
567 1 567 0.839351 0.840157 0 -1.30176 
568 1 568 0.839326 0.880177 0 -1.01398 
569 1 569 0.839307 0.920198 0 -0.758086 
570 1 570 0.839292 0.960217 0 -0.746064 
571 1 571 0.839276 1.00024 0 -0.788304 
572 1 572 0.88 0 0 0 
573 1 573 0.879974 0.0399862 0 -0.238868 
574 1 574 0.879947 0.0799755 0 -1.01915 
575 1 575 0.879924 0.119967 0 -2.02104 
576 1 576 0.879897 0.159963 0 -2.84266 
577 1 577 0.879872 0.199962 0 -3.38173 
578 1 578 0.87984 0.239964 0 -3.64016 
579 1 579 0.879807 0.279971 0 -3.86963 
580 1 580 0.879773 0.31998 0 -4.1402 
581 1 581 0.879741 0.359994 0 -4.49231 
582 1 582 0.879709 0.40001 0 -4.68724 
583 1 583 0.879678 0.440027 0 -4.69891 
584 1 584 0.879644 0.480043 0 -4.46486 
585 1 585 0.87961 0.520058 0 -3.99873 
586 1 586 0.879576 0.56007 0 -3.44789 
587 1 587 0.879536 0.600081 0 -3.00615 
588 1 588 0.879492 0.640091 0 -2.91271 
589 1 589 0.879449 0.680105 0 -2.87755 
590 1 590 0.879405 0.72012 0 -2.74824 
591 1 591 0.87937 0.760138 0 -2.38891 
592 1 592 0.879336 0.800156 0 -1.91229 
593 1 593 0.879308 0.840174 0 -1.63894 
594 1 594 0.879285 0.880194 0 -1.33171 
595 1 595 0.879269 0.920214 0 -1.00588 
596 1 596 0.879256 0.960232 0 -0.690481 
597 1 597 0.879239 1.00025 0 -0.489493 
598 1 598 0.92 0 0 0 
599 1 599 0.919973 0.0399867 0 -0.383353 
600 1 600 0.919941 0.0799779 0 -1.17562 
601 1 601 0.919913 0.119971 0 -2.19384 
602 1 602 0.919884 0.159968 0 -3.11076 
603 1 603 0.919856 0.199968 0 -3.71526 
604 1 604 0.919821 0.239972 0 -3.97945 
605 1 605 0.919785 0.279979 0 -4.10567 
606 1 606 0.919747 0.319988 0 -4.23963 
607 1 607 0.919711 0.360002 0 -4.59644 
608 1 608 0.919678 0.400017 0 -4.8403 
609 1 609 0.919647 0.440035 0 -4.92319 
610 1 610 0.919618 0.480051 0 -4.70955 
611 1 611 0.919586 0.520066 0 -4.13671 
612 1 612 0.919548 0.560079 0 -3.4808 
613 1 613 0.919507 0.600093 0 -2.93305 
614 1 614 0.919465 0.640108 0 -2.70642 
615 1 615 0.919426 0.680125 0 -2.65378 
616 1 616 0.919384 0.720142 0 -2.51558 
617 1 617 0.919346 0.760159 0 -2.25027 
618 1 618 0.91931 0.800176 0 -2.00177 
619 1 619 0.91928 0.840193 0 -1.8452 
620 1 620 0.919254 0.880211 0 -1.62038 
621 1 621 0.919235 0.920229 0 -1.28143 
622 1 622 0.91922 0.960247 0 -0.671527 
623 1 623 0.919203 1.00027 0 -0.239002 
624 1 624 0.96 0 0 0 
625 1 625 0.959965 0.039989 0 -0.630067 
626 1 626 0.959932 0.079982 0 -1.50339 
627 1 627 0.959903 0.119977 0 -2.55057 
628 1 628 0.959869 0.159975 0 -3.47602 
629 1 629 0.959838 0.199977 0 -4.0637 
630 1 630 0.959801 0.239981 0 -4.39015 
631 1 631 0.959763 0.279988 0 -4.57304 
632 1 632 0.959721 0.319997 0 -4.68198 
633 1 633 0.959682 0.360011 0 -4.9365 
634 1 634 0.959645 0.400027 0 -5.02211 
635 1 635 0.95961 0.440046 0 -5.02663 
636 1 636 0.959578 0.480064 0 -4.76169 
637 1 637 0.959544 0.520083 0 -4.15832 
638 1 638 0.959508 0.560098 0 -3.48952 
639 1 639 0.959467 0.600113 0 -2.82275 
640 1 640 0.959417 0.640126 0 -2.44473 
641 1 641 0.959369 0.680143 0 -2.36217 
642 1 642 0.959326 0.720159 0 -2.22582 
643 1 643 0.95929 0.760177 0 -2.11001 
644 1 644 0.95926 0.800194 0 -2.0592 
645 1 645 0.959234 0.840211 0 -1.97339 
646 1 646 0.95921 0.880227 0 -1.85689 
647 1 647 0.959193 0.920244 0 -1.54491 
648 1 648 0.959181 0.960262 0 -0.766756 
649 1 649 0.959165 1.00028 0 -0.203103 
650 1 650 1 0 0 0 
651 1 651 0.999963 0.0399907 0 -0.926055 
652 1 652 0.999924 0.0799855 0 -1.88971 
653 1 653 0.99989 0.119983 0 -2.95755 
654 1 654 0.999853 0.159982 0 -3.92197 
655 1 655 0.999819 0.199984 0 -4.57913 
656 1 656 0.999779 0.239988 0 -4.97815 
657 1 657 0.999741 0.279994 0 -5.1276 
658 1 658 0.999696 0.320003 0 -5.17075 
659 1 659 0.999654 0.360016 0 -5.33871 
660 1 660 0.999614 0.400032 0 -5.32762 
661 1 661 0.99958 0.440052 0 -5.26485 
662 1 662 0.999551 0.480071 0 -4.86931 
663 1 663 0.999518 0.520091 0 -4.19349 
664 1 664 0.999477 0.560109 0 -3.49178 
665 1 665 0.999433 0.600129 0 -2.72564 
666 1 666 0.999387 0.640146 0 -2.22815 
667 1 667 0.999344 0.680166 0 -2.05709 
668 1 668 0.999302 0.720182 0 -1.86052 
669 1 669 0.999264 0.760199 0 -1.88745 
670 1 670 0.999231 0.800214 0 -2.0679 
671 1 671 0.999202 0.840229 0 -2.09658 
672 1 672 0.999176 0.880244 0 -2.03489 
673 1 673 0.999156 0.92026 0 -1.70933 
674 1 674 0.999142 0.960277 0 -0.908158 
675 1 675 0.999127 1.0003 0 -0.333263 
676 1 676 1.04 0 0 0 
677 1 677 1.03995 0.0399934 0 -1.15587 
678 1 678 1.03991 0.0799894 0 -2.23196 
679 1 679 1.03988 0.119988 0 -3.34518 
680 1 680 1.03984 0.159987 0 -4.33167 
681 1 681 1.0398 0.19999 0 -5.04127 
682 1 682 1.03976 0.239994 0 -5.53843 
683 1 683 1.03972 0.28 0 -5.73796 
684 1 684 1.03967 0.32001 0 -5.77208 
685 1 685 1.03962 0.360023 0 -5.81337 
686 1 686 1.03958 0.40004 0 -5.65161 
687 1 687 1.03954 0.44006 0 -5.47703 
688 1 688 1.03951 0.480082 0 -4.96432 
689 1 689 1.03947 0.520106 0 -4.26746 
690 1 690 1.03943 0.560127 0 -3.53844 
691 1 691 1.03939 0.600147 0 -2.73729 
692 1 692 1.03933 0.640163 0 -2.16636 
693 1 693 1.03928 0.680181 0 -1.87944 
694 1 694 1.03924 0.720197 0 -1.63716 
695 1 695 1.0392 0.760214 0 -1.75176 
696 1 696 1.03918 0.800229 0 -2.04789 
697 1 697 1.03915 0.840244 0 -2.14599 
698 1 698 1.03913 0.880259 0 -2.14757 
699 1 699 1.03911 0.920275 0 -1.89176 
700 1 700 1.0391 0.960293 0 -1.19502 
701 1 701 1.03908 1.00031 0 -0.66719 
702 1 702 1.08 0 0 0 
703 1 703 1.07995 0.0399954 0 -1.44067 
704 1 704 1.07991 0.079992 0 -2.6528 
705 1 705 1.07986 0.119991 0 -3.74351 
706 1 706 1.07982 0.159991 0 -4.66073 
707 1 707 1.07978 0.199993 0 -5.35794 
708 1 708 1.07973 0.239997 0 -5.90972 
709 1 709 1.07969 0.280003 0 -6.18641 
710 1 710 1.07964 0.320012 0 -6.25977 
711 1 711 1.07959 0.360025 0 -6.17707 
712 1 712 1.07955 0.400041 0 -5.88209 
713 1 713 1.07951 0.440062 0 -5.60959 
714 1 714 1.07947 0.480084 0 -5.01504 
715 1 715 1.07944 0.520108 0 -4.34663 
716 1 716 1.0794 0.560131 0 -3.64199 
717 1 717 1.07935 0.600155 0 -2.91127 
718 1 718 1.0793 0.640177 0 -2.25391 
719 1 719 1.07926 0.680197 0 -1.75527 
720 1 720 1.07921 0.720213 0 -1.45096 
721 1 721 1.07918 0.760229 0 -1.5987 
722 1 722 1.07915 0.800243 0 -1.95947 
723 1 723 1.07912 0.840259 0 -2.1203 
724 1 724 1.07909 0.880273 0 -2.13027 
725 1 725 1.07907 0.920289 0 -1.89796 
726 1 726 1.07906 0.960308 0 -1.3353 
727 1 727 1.07904 1.00033 0 -0.891312 
728 1 728 1.12 0 0 0 
729 1 729 1.11995 0.0399974 0 -1.50876 
730 1 730 1.1199 0.0799944 0 -2.81961 
731 1 731 1.11985 0.119994 0 -3.95139 
732 1 732 1.1198 0.159994 0 -4.86031 
733 1 733 1.11975 0.199997 0 -5.56588 
734 1 734 1.1197 0.240001 0 -6.11826 
735 1 735 1.11966 0.280007 0 -6.38422 
736 1 736 1.11961 0.320016 0 -6.47071 
737 1 737 1.11956 0.360029 0 -6.35283 
738 1 738 1.11951 0.400045 0 -6.04755 
739 1 739 1.11947 0.440065 0 -5.72985 
740 1 740 1.11942 0.480088 0 -5.1456 
741 1 741 1.11938 0.520114 0 -4.61638 
742 1 742 1.11934 0.560139 0 -3.92848 
743 1 743 1.1193 0.600163 0 -3.1819 
744 1 744 1.11924 0.640182 0 -2.35541 
745 1 745 1.11919 0.6802 0 -1.66077 
746 1 746 1.11915 0.720216 0 -1.30869 
747 1 747 1.11912 0.760234 0 -1.38449 
748 1 748 1.11909 0.80025 0 -1.77189 
749 1 749 1.11906 0.840268 0 -2.0112 
750 1 750 1.11904 0.880285 0 -1.97948 
751 1 751 1.11902 0.920304 0 -1.79409 
752 1 752 1.11901 0.960324 0 -1.55848 
753 1 753 1.11899 1.00035 0 -1.33743 
754 1 754 1.16 0 0 0 
755 1 755 1.15995 0.039998 0 -1.50027 
756 1 756 1.15989 0.0799958 0 -2.90391 
757 1 757 1.15983 0.119996 0 -4.06293 
758 1 758 1.15978 0.159997 0 -4.91022 
759 1 759 1.15973 0.199999 0 -5.58219 
760 1 760 1.15967 0.240002 0 -6.17049 
761 1 761 1.15963 0.280009 0 -6.48752 
762 1 762 1.15957 0.320017 0 -6.60031 
763 1 763 1.15953 0.360029 0 -6.47817 
764 1 764 1.15947 0.400043 0 -6.21075 
765 1 765 1.15943 0.440063 0 -5.88898 
766 1 766 1.15939 0.480084 0 -5.35992 
767 1 767 1.15935 0.520108 0 -4.93834 
768 1 768 1.1593 0.560133 0 -4.27331 
769 1 769 1.15925 0.600159 0 -3.63746 
770 1 770 1.15921 0.640182 0 -2.72966 
771 1 771 1.15916 0.680204 0 -1.83743 
772 1 772 1.15913 0.720222 0 -1.35236 
773 1 773 1.15909 0.76024 0 -1.2049 
774 1 774 1.15906 0.800258 0 -1.49891 
775 1 775 1.15903 0.840279 0 -1.71223 
776 1 776 1.159 0.880298 0 -1.57769 
777 1 777 1.15898 0.920319 0 -1.46206 
778 1 778 1.15896 0.960342 0 -1.58646 
779 1 779 1.15894 1.00037 0 -1.60363 
780 1 780 1.2 0 0 0 