ITEM: TIMESTEP
0
ITEM: NUMBER OF ATOMS
7127
ITEM: BOX BOUNDS sm sm sm
0 4
0 2
0 0
ITEM: ATOMS id type tag x y z vx 
0 1 0 0 0 0 0 
1 1 1 0 0.04 0 0 
2 1 2 0 0.08 0 0 
3 1 3 0 0.12 0 0 
4 1 4 0 0.16 0 0 
5 1 5 0 0.2 0 0 
6 1 6 0 0.24 0 0 
7 1 7 0 0.28 0 0 
8 1 8 0 0.32 0 0 
9 1 9 0 0.36 0 0 
10 1 10 0 0.4 0 0 
11 1 11 0 0.44 0 0 
12 1 12 0 0.48 0 0 
13 1 13 0 0.52 0 0 
14 1 14 0 0.56 0 0 
15 1 15 0 0.6 0 0 
16 1 16 0 0.64 0 0 
17 1 17 0 0.68 0 0 
18 1 18 0 0.72 0 0 
19 1 19 0 0.76 0 0 
20 1 20 0 0.8 0 0 
21 1 21 0 0.84 0 0 
22 1 22 0 0.88 0 0 
23 1 23 0 0.92 0 0 
24 1 24 0 0.96 0 0 
25 1 25 0 1 0 0 
26 1 26 0.04 0 0 0 
27 1 27 0.04 0.04 0 -5.10291e-34 
28 1 28 0.04 0.08 0 -1.0589e-33 
29 1 29 0.04 0.12 0 -1.70172e-33 
30 1 30 0.04 0.16 0 -2.49737e-33 
31 1 31 0.04 0.2 0 -3.49987e-33 
32 1 32 0.04 0.24 0 -4.76116e-33 
33 1 33 0.04 0.28 0 -6.32916e-33 
34 1 34 0.04 0.32 0 -8.24521e-33 
35 1 35 0.04 0.36 0 -1.05406e-32 
36 1 36 0.04 0.4 0 -1.32324e-32 
37 1 37 0.04 0.44 0 -1.63199e-32 
38 1 38 0.04 0.48 0 -1.97804e-32 
39 1 39 0.04 0.52 0 -2.3566e-32 
40 1 40 0.04 0.56 0 -2.75997e-32 
41 1 41 0.04 0.6 0 -3.17716e-32 
42 1 42 0.04 0.64 0 -3.59334e-32 
43 1 43 0.04 0.68 0 -3.98941e-32 
44 1 44 0.04 0.72 0 -4.34155e-32 
45 1 45 0.04 0.76 0 -4.62147e-32 
46 1 46 0.04 0.8 0 -4.79627e-32 
47 1 47 0.04 0.84 0 -4.83359e-32 
48 1 48 0.04 0.88 0 -4.68858e-32 
49 1 49 0.04 0.92 0 -4.36494e-32 
50 1 50 0.04 0.96 0 -3.67216e-32 
51 1 51 0.04 1 0 -3.17738e-32 
52 1 52 0.08 0 0 0 
53 1 53 0.08 0.04 0 -5.85891e-33 
54 1 54 0.08 0.08 0 -1.21618e-32 
55 1 55 0.08 0.12 0 -1.95553e-32 
56 1 56 0.08 0.16 0 -2.8714e-32 
57 1 57 0.08 0.2 0 -4.02542e-32 
58 1 58 0.08 0.24 0 -5.47602e-32 
59 1 59 0.08 0.28 0 -7.27599e-32 
60 1 60 0.08 0.32 0 -9.4692e-32 
61 1 61 0.08 0.36 0 -1.20863e-31 
62 1 62 0.08 0.4 0 -1.51401e-31 
63 1 63 0.08 0.44 0 -1.86213e-31 
64 1 64 0.08 0.48 0 -2.2495e-31 
65 1 65 0.08 0.52 0 -2.66975e-31 
66 1 66 0.08 0.56 0 -3.11343e-31 
67 1 67 0.08 0.6 0 -3.56772e-31 
68 1 68 0.08 0.64 0 -4.01601e-31 
69 1 69 0.08 0.68 0 -4.43746e-31 
70 1 70 0.08 0.72 0 -4.80651e-31 
71 1 71 0.08 0.76 0 -5.09302e-31 
72 1 72 0.08 0.8 0 -5.26184e-31 
73 1 73 0.08 0.84 0 -5.27871e-31 
74 1 74 0.08 0.88 0 -5.09478e-31 
75 1 75 0.08 0.92 0 -4.7173e-31 
76 1 76 0.08 0.96 0 -3.93433e-31 
77 1 77 0.08 1 0 -3.37829e-31 
78 1 78 0.12 0 0 0 
79 1 79 0.12 0.04 0 -7.04302e-32 
80 1 80 0.12 0.08 0 -1.46826e-31 
81 1 81 0.12 0.12 0 -2.37634e-31 
82 1 82 0.12 0.16 0 -3.51761e-31 
83 1 83 0.12 0.2 0 -4.97594e-31 
84 1 84 0.12 0.24 0 -6.83333e-31 
85 1 85 0.12 0.28 0 -9.16681e-31 
86 1 86 0.12 0.32 0 -1.20439e-30 
87 1 87 0.12 0.36 0 -1.55168e-30 
88 1 88 0.12 0.4 0 -1.96156e-30 
89 1 89 0.12 0.44 0 -2.4342e-30 
90 1 90 0.12 0.48 0 -2.96644e-30 
91 1 91 0.12 0.52 0 -3.55132e-30 
92 1 92 0.12 0.56 0 -4.17772e-30 
93 1 93 0.12 0.6 0 -4.82981e-30 
94 1 94 0.12 0.64 0 -5.48635e-30 
95 1 95 0.12 0.68 0 -6.11954e-30 
96 1 96 0.12 0.72 0 -6.69368e-30 
97 1 97 0.12 0.76 0 -7.1646e-30 
98 1 98 0.12 0.8 0 -7.47829e-30 
99 1 99 0.12 0.84 0 -7.57862e-30 
100 1 100 0.12 0.88 0 -7.3867e-30 
101 1 101 0.12 0.92 0 -6.901e-30 
102 1 102 0.12 0.96 0 -5.81092e-30 
103 1 103 0.12 1 0 -5.02437e-30 
104 1 104 0.16 0 0 0 
105 1 105 0.16 0.04 0 -7.8787e-31 
106 1 106 0.16 0.08 0 -1.64309e-30 
107 1 107 0.16 0.12 0 -2.66089e-30 
108 1 108 0.16 0.16 0 -3.94117e-30 
109 1 109 0.16 0.2 0 -5.57711e-30 
110 1 110 0.16 0.24 0 -7.6587e-30 
111 1 111 0.16 0.28 0 -1.02687e-29 
112 1 112 0.16 0.32 0 -1.3477e-29 
113 1 113 0.16 0.36 0 -1.73331e-29 
114 1 114 0.16 0.4 0 -2.18584e-29 
115 1 115 0.16 0.44 0 -2.70387e-29 
116 1 116 0.16 0.48 0 -3.28192e-29 
117 1 117 0.16 0.52 0 -3.91023e-29 
118 1 118 0.16 0.56 0 -4.57469e-29 
119 1 119 0.16 0.6 0 -5.25679e-29 
120 1 120 0.16 0.64 0 -5.93326e-29 
121 1 121 0.16 0.68 0 -6.57521e-29 
122 1 122 0.16 0.72 0 -7.14657e-29 
123 1 123 0.16 0.76 0 -7.60311e-29 
124 1 124 0.16 0.8 0 -7.89023e-29 
125 1 125 0.16 0.84 0 -7.95119e-29 
126 1 126 0.16 0.88 0 -7.70315e-29 
127 1 127 0.16 0.92 0 -7.14978e-29 
128 1 128 0.16 0.96 0 -5.9567e-29 
129 1 129 0.16 1 0 -5.10158e-29 
130 1 130 0.2 0 0 0 
131 1 131 0.2 0.04 0 -9.26177e-30 
132 1 132 0.2 0.08 0 -1.94094e-29 
133 1 133 0.2 0.12 0 -3.16657e-29 
134 1 134 0.2 0.16 0 -4.73317e-29 
135 1 135 0.2 0.2 0 -6.76628e-29 
136 1 136 0.2 0.24 0 -9.39132e-29 
137 1 137 0.2 0.28 0 -1.27287e-28 
138 1 138 0.2 0.32 0 -1.6886e-28 
139 1 139 0.2 0.36 0 -2.19485e-28 
140 1 140 0.2 0.4 0 -2.79672e-28 
141 1 141 0.2 0.44 0 -3.49494e-28 
142 1 142 0.2 0.48 0 -4.28504e-28 
143 1 143 0.2 0.52 0 -5.15695e-28 
144 1 144 0.2 0.56 0 -6.09475e-28 
145 1 145 0.2 0.6 0 -7.07638e-28 
146 1 146 0.2 0.64 0 -8.07281e-28 
147 1 147 0.2 0.68 0 -9.04623e-28 
148 1 148 0.2 0.72 0 -9.94708e-28 
149 1 149 0.2 0.76 0 -1.07112e-27 
150 1 150 0.2 0.8 0 -1.1255e-27 
151 1 151 0.2 0.84 0 -1.14856e-27 
152 1 152 0.2 0.88 0 -1.12671e-27 
153 1 153 0.2 0.92 0 -1.05809e-27 
154 1 154 0.2 0.96 0 -8.92628e-28 
155 1 155 0.2 1 0 -7.71386e-28 
156 1 156 0.24 0 0 0 
157 1 157 0.24 0.04 0 -1.01498e-28 
158 1 158 0.24 0.08 0 -2.12802e-28 
159 1 159 0.24 0.12 0 -3.47413e-28 
160 1 160 0.24 0.16 0 -5.19606e-28 
161 1 161 0.24 0.2 0 -7.43023e-28 
162 1 162 0.24 0.24 0 -1.03113e-27 
163 1 163 0.24 0.28 0 -1.39664e-27 
164 1 164 0.24 0.32 0 -1.85054e-27 
165 1 165 0.24 0.36 0 -2.40087e-27 
166 1 166 0.24 0.4 0 -3.05128e-27 
167 1 167 0.24 0.44 0 -3.79973e-27 
168 1 168 0.24 0.48 0 -4.63762e-27 
169 1 169 0.24 0.52 0 -5.54964e-27 
170 1 170 0.24 0.56 0 -6.51424e-27 
171 1 171 0.24 0.6 0 -7.50455e-27 
172 1 172 0.24 0.64 0 -8.48886e-27 
173 1 173 0.24 0.68 0 -9.42973e-27 
174 1 174 0.24 0.72 0 -1.02809e-26 
175 1 175 0.24 0.76 0 -1.09833e-26 
176 1 176 0.24 0.8 0 -1.14578e-26 
177 1 177 0.24 0.84 0 -1.16146e-26 
178 1 178 0.24 0.88 0 -1.13147e-26 
179 1 179 0.24 0.92 0 -1.05461e-26 
180 1 180 0.24 0.96 0 -8.78386e-27 
181 1 181 0.24 1 0 -7.50235e-27 
182 1 182 0.28 0 0 0 
183 1 183 0.28 0.04 0 -1.16681e-27 
184 1 184 0.28 0.08 0 -2.45954e-27 
185 1 185 0.28 0.12 0 -4.0484e-27 
186 1 186 0.28 0.16 0 -6.11669e-27 
187 1 187 0.28 0.2 0 -8.84636e-27 
188 1 188 0.28 0.24 0 -1.24241e-26 
189 1 189 0.28 0.28 0 -1.70339e-26 
190 1 190 0.28 0.32 0 -2.28452e-26 
191 1 191 0.28 0.36 0 -2.99954e-26 
192 1 192 0.28 0.4 0 -3.85713e-26 
193 1 193 0.28 0.44 0 -4.85914e-26 
194 1 194 0.28 0.48 0 -5.99934e-26 
195 1 195 0.28 0.52 0 -7.26295e-26 
196 1 196 0.28 0.56 0 -8.62689e-26 
197 1 197 0.28 0.6 0 -1.00603e-25 
198 1 198 0.28 0.64 0 -1.15245e-25 
199 1 199 0.28 0.68 0 -1.2971e-25 
200 1 200 0.28 0.72 0 -1.43364e-25 
201 1 201 0.28 0.76 0 -1.55355e-25 
202 1 202 0.28 0.8 0 -1.64487e-25 
203 1 203 0.28 0.84 0 -1.69307e-25 
204 1 204 0.28 0.88 0 -1.67542e-25 
205 1 205 0.28 0.92 0 -1.58567e-25 
206 1 206 0.28 0.96 0 -1.34324e-25 
207 1 207 0.28 1 0 -1.16145e-25 
208 1 208 0.32 0 0 0 
209 1 209 0.32 0.04 0 -1.24911e-26 
210 1 210 0.32 0.08 0 -2.63517e-26 
211 1 211 0.32 0.12 0 -4.34224e-26 
212 1 212 0.32 0.16 0 -6.56675e-26 
213 1 213 0.32 0.2 0 -9.50138e-26 
214 1 214 0.32 0.24 0 -1.33415e-25 
215 1 215 0.32 0.28 0 -1.82771e-25 
216 1 216 0.32 0.32 0 -2.44791e-25 
217 1 217 0.32 0.36 0 -3.20792e-25 
218 1 218 0.32 0.4 0 -4.11444e-25 
219 1 219 0.32 0.44 0 -5.16529e-25 
220 1 220 0.32 0.48 0 -6.34747e-25 
221 1 221 0.32 0.52 0 -7.63676e-25 
222 1 222 0.32 0.56 0 -8.99909e-25 
223 1 223 0.32 0.6 0 -1.03937e-24 
224 1 224 0.32 0.64 0 -1.17764e-24 
225 1 225 0.32 0.68 0 -1.31012e-24 
226 1 226 0.32 0.72 0 -1.43157e-24 
227 1 227 0.32 0.76 0 -1.53527e-24 
228 1 228 0.32 0.8 0 -1.61106e-24 
229 1 229 0.32 0.84 0 -1.6458e-24 
230 1 230 0.32 0.88 0 -1.61673e-24 
231 1 231 0.32 0.92 0 -1.51817e-24 
232 1 232 0.32 0.96 0 -1.2671e-24 
233 1 233 0.32 1 0 -1.08014e-24 
234 1 234 0.36 0 0 0 
235 1 235 0.36 0.04 0 -1.40593e-25 
236 1 236 0.36 0.08 0 -2.98301e-25 
237 1 237 0.36 0.12 0 -4.95856e-25 
238 1 238 0.36 0.16 0 -7.58083e-25 
239 1 239 0.36 0.2 0 -1.11041e-24 
240 1 240 0.36 0.24 0 -1.57976e-24 
241 1 241 0.36 0.28 0 -2.19357e-24 
242 1 242 0.36 0.32 0 -2.97795e-24 
243 1 243 0.36 0.36 0 -3.95496e-24 
244 1 244 0.36 0.4 0 -5.13924e-24 
245 1 245 0.36 0.44 0 -6.53502e-24 
246 1 246 0.36 0.48 0 -8.13387e-24 
247 1 247 0.36 0.52 0 -9.91413e-24 
248 1 248 0.36 0.56 0 -1.18419e-23 
249 1 249 0.36 0.6 0 -1.38734e-23 
250 1 250 0.36 0.64 0 -1.59568e-23 
251 1 251 0.36 0.68 0 -1.80322e-23 
252 1 252 0.36 0.72 0 -2.0026e-23 
253 1 253 0.36 0.76 0 -2.18383e-23 
254 1 254 0.36 0.8 0 -2.33172e-23 
255 1 255 0.36 0.84 0 -2.42561e-23 
256 1 256 0.36 0.88 0 -2.42924e-23 
257 1 257 0.36 0.92 0 -2.32688e-23 
258 1 258 0.36 0.96 0 -1.98808e-23 
259 1 259 0.36 1 0 -1.72462e-23 
260 1 260 0.4 0 0 0 
261 1 261 0.4 0.04 0 -1.46284e-24 
262 1 262 0.4 0.08 0 -3.10937e-24 
263 1 263 0.4 0.12 0 -5.18112e-24 
264 1 264 0.4 0.16 0 -7.93843e-24 
265 1 265 0.4 0.2 0 -1.16434e-23 
266 1 266 0.4 0.24 0 -1.65688e-23 
267 1 267 0.4 0.28 0 -2.29891e-23 
268 1 268 0.4 0.32 0 -3.11627e-23 
269 1 269 0.4 0.36 0 -4.13032e-23 
270 1 270 0.4 0.4 0 -5.35395e-23 
271 1 271 0.4 0.44 0 -6.78687e-23 
272 1 272 0.4 0.48 0 -8.41154e-23 
273 1 273 0.4 0.52 0 -1.0191e-22 
274 1 274 0.4 0.56 0 -1.20707e-22 
275 1 275 0.4 0.6 0 -1.39849e-22 
276 1 276 0.4 0.64 0 -1.58668e-22 
277 1 277 0.4 0.68 0 -1.7657e-22 
278 1 278 0.4 0.72 0 -1.93048e-22 
279 1 279 0.4 0.76 0 -2.07537e-22 
280 1 280 0.4 0.8 0 -2.19032e-22 
281 1 281 0.4 0.84 0 -2.259e-22 
282 1 282 0.4 0.88 0 -2.24637e-22 
283 1 283 0.4 0.92 0 -2.13674e-22 
284 1 284 0.4 0.96 0 -1.79686e-22 
285 1 285 0.4 1 0 -1.53359e-22 
286 1 286 0.44 0 0 0 
287 1 287 0.44 0.04 0 -1.61628e-23 
288 1 288 0.44 0.08 0 -3.4556e-23 
289 1 289 0.44 0.12 0 -5.80929e-23 
290 1 290 0.44 0.16 0 -9.00018e-23 
291 1 291 0.44 0.2 0 -1.33701e-22 
292 1 292 0.44 0.24 0 -1.92939e-22 
293 1 293 0.44 0.28 0 -2.71688e-22 
294 1 294 0.44 0.32 0 -3.73883e-22 
295 1 295 0.44 0.36 0 -5.02985e-22 
296 1 296 0.44 0.4 0 -6.6142e-22 
297 1 297 0.44 0.44 0 -8.50028e-22 
298 1 298 0.44 0.48 0 -1.06767e-21 
299 1 299 0.44 0.52 0 -1.31117e-21 
300 1 300 0.44 0.56 0 -1.57554e-21 
301 1 301 0.44 0.6 0 -1.8545e-21 
302 1 302 0.44 0.64 0 -2.14103e-21 
303 1 303 0.44 0.68 0 -2.42772e-21 
304 1 304 0.44 0.72 0 -2.7065e-21 
305 1 305 0.44 0.76 0 -2.96748e-21 
306 1 306 0.44 0.8 0 -3.19476e-21 
307 1 307 0.44 0.84 0 -3.36383e-21 
308 1 308 0.44 0.88 0 -3.42244e-21 
309 1 309 0.44 0.92 0 -3.338e-21 
310 1 310 0.44 0.96 0 -2.8998e-21 
311 1 311 0.44 1 0 -2.53822e-21 
312 1 312 0.48 0 0 0 
313 1 313 0.48 0.04 0 -1.62175e-22 
314 1 314 0.48 0.08 0 -3.48002e-22 
315 1 315 0.48 0.12 0 -5.88038e-22 
316 1 316 0.48 0.16 0 -9.1571e-22 
317 1 317 0.48 0.2 0 -1.36555e-21 
318 1 318 0.48 0.24 0 -1.9742e-21 
319 1 319 0.48 0.28 0 -2.7794e-21 
320 1 320 0.48 0.32 0 -3.81818e-21 
321 1 321 0.48 0.36 0 -5.12354e-21 
322 1 322 0.48 0.4 0 -6.71909e-21 
323 1 323 0.48 0.44 0 -8.61159e-21 
324 1 324 0.48 0.48 0 -1.07825e-20 
325 1 325 0.48 0.52 0 -1.31815e-20 
326 1 326 0.48 0.56 0 -1.57255e-20 
327 1 327 0.48 0.6 0 -1.83072e-20 
328 1 328 0.48 0.64 0 -2.08138e-20 
329 1 329 0.48 0.68 0 -2.3152e-20 
330 1 330 0.48 0.72 0 -2.52667e-20 
331 1 331 0.48 0.76 0 -2.71385e-20 
332 1 332 0.48 0.8 0 -2.87268e-20 
333 1 333 0.48 0.84 0 -2.99051e-20 
334 1 334 0.48 0.88 0 -3.02166e-20 
335 1 335 0.48 0.92 0 -2.9338e-20 
336 1 336 0.48 0.96 0 -2.51326e-20 
337 1 337 0.48 1 0 -2.16528e-20 
338 1 338 0.52 0 0 0 
339 1 339 0.52 0.04 0 -1.76498e-21 
340 1 340 0.52 0.08 0 -3.81061e-21 
341 1 341 0.52 0.12 0 -6.49676e-21 
342 1 342 0.52 0.16 0 -1.02278e-20 
343 1 343 0.52 0.2 0 -1.54459e-20 
344 1 344 0.52 0.24 0 -2.26545e-20 
345 1 345 0.52 0.28 0 -3.24098e-20 
346 1 346 0.52 0.32 0 -4.5286e-20 
347 1 347 0.52 0.36 0 -6.1805e-20 
348 1 348 0.52 0.4 0 -8.23446e-20 
349 1 349 0.52 0.44 0 -1.07044e-19 
350 1 350 0.52 0.48 0 -1.35741e-19 
351 1 351 0.52 0.52 0 -1.67961e-19 
352 1 352 0.52 0.56 0 -2.02969e-19 
353 1 353 0.52 0.6 0 -2.39857e-19 
354 1 354 0.52 0.64 0 -2.77645e-19 
355 1 355 0.52 0.68 0 -3.15343e-19 
356 1 356 0.52 0.72 0 -3.51972e-19 
357 1 357 0.52 0.76 0 -3.86583e-19 
358 1 358 0.52 0.8 0 -4.17977e-19 
359 1 359 0.52 0.84 0 -4.44275e-19 
360 1 360 0.52 0.88 0 -4.59689e-19 
361 1 361 0.52 0.92 0 -4.59171e-19 
362 1 362 0.52 0.96 0 -4.10529e-19 
363 1 363 0.52 1 0 -3.66227e-19 
364 1 364 0.56 0 0 0 
365 1 365 0.56 0.04 0 -1.69354e-20 
366 1 366 0.56 0.08 0 -3.67529e-20 
367 1 367 0.56 0.12 0 -6.3167e-20 
368 1 368 0.56 0.16 0 -1.00372e-19 
369 1 369 0.56 0.2 0 -1.52868e-19 
370 1 370 0.56 0.24 0 -2.25511e-19 
371 1 371 0.56 0.28 0 -3.23354e-19 
372 1 372 0.56 0.32 0 -4.51444e-19 
373 1 373 0.56 0.36 0 -6.14499e-19 
374 1 374 0.56 0.4 0 -8.16361e-19 
375 1 375 0.56 0.44 0 -1.0591e-18 
376 1 376 0.56 0.48 0 -1.34166e-18 
377 1 377 0.56 0.52 0 -1.65837e-18 
378 1 378 0.56 0.56 0 -1.99801e-18 
379 1 379 0.56 0.6 0 -2.34413e-18 
380 1 380 0.56 0.64 0 -2.67737e-18 
381 1 381 0.56 0.68 0 -2.97991e-18 
382 1 382 0.56 0.72 0 -3.24068e-18 
383 1 383 0.56 0.76 0 -3.45948e-18 
384 1 384 0.56 0.8 0 -3.64477e-18 
385 1 385 0.56 0.84 0 -3.80423e-18 
386 1 386 0.56 0.88 0 -3.90301e-18 
387 1 387 0.56 0.92 0 -3.89788e-18 
388 1 388 0.56 0.96 0 -3.46854e-18 
389 1 389 0.56 1 0 -3.06927e-18 
390 1 390 0.6 0 0 0 
391 1 391 0.6 0.04 0 -1.81789e-19 
392 1 392 0.6 0.08 0 -3.97881e-19 
393 1 393 0.6 0.12 0 -6.91724e-19 
394 1 394 0.6 0.16 0 -1.11254e-18 
395 1 395 0.6 0.2 0 -1.71477e-18 
396 1 396 0.6 0.24 0 -2.56082e-18 
397 1 397 0.6 0.28 0 -3.72133e-18 
398 1 398 0.6 0.32 0 -5.27465e-18 
399 1 399 0.6 0.36 0 -7.30123e-18 
400 1 400 0.6 0.4 0 -9.86675e-18 
401 1 401 0.6 0.44 0 -1.30025e-17 
402 1 402 0.6 0.48 0 -1.66993e-17 
403 1 403 0.6 0.52 0 -2.09056e-17 
404 1 404 0.6 0.56 0 -2.55212e-17 
405 1 405 0.6 0.6 0 -3.04009e-17 
406 1 406 0.6 0.64 0 -3.53618e-17 
407 1 407 0.6 0.68 0 -4.01969e-17 
408 1 408 0.6 0.72 0 -4.47178e-17 
409 1 409 0.6 0.76 0 -4.87865e-17 
410 1 410 0.6 0.8 0 -5.23342e-17 
411 1 411 0.6 0.84 0 -5.53844e-17 
412 1 412 0.6 0.88 0 -5.77435e-17 
413 1 413 0.6 0.92 0 -5.91094e-17 
414 1 414 0.6 0.96 0 -5.53935e-17 
415 1 415 0.6 1 0 -5.12611e-17 
416 1 416 0.64 0 0 0 
417 1 417 0.64 0.04 0 -1.665e-18 
418 1 418 0.64 0.08 0 -3.65227e-18 
419 1 419 0.64 0.12 0 -6.38392e-18 
420 1 420 0.64 0.16 0 -1.03755e-17 
421 1 421 0.64 0.2 0 -1.6246e-17 
422 1 422 0.64 0.24 0 -2.46991e-17 
423 1 423 0.64 0.28 0 -3.64474e-17 
424 1 424 0.64 0.32 0 -5.2158e-17 
425 1 425 0.64 0.36 0 -7.24364e-17 
426 1 426 0.64 0.4 0 -9.77598e-17 
427 1 427 0.64 0.44 0 -1.28331e-16 
428 1 428 0.64 0.48 0 -1.64051e-16 
429 1 429 0.64 0.52 0 -2.04373e-16 
430 1 430 0.64 0.56 0 -2.47883e-16 
431 1 431 0.64 0.6 0 -2.92361e-16 
432 1 432 0.64 0.64 0 -3.35085e-16 
433 1 433 0.64 0.68 0 -3.73067e-16 
434 1 434 0.64 0.72 0 -4.04022e-16 
435 1 435 0.64 0.76 0 -4.27295e-16 
436 1 436 0.64 0.8 0 -4.44136e-16 
437 1 437 0.64 0.84 0 -4.57637e-16 
438 1 438 0.64 0.88 0 -4.70496e-16 
439 1 439 0.64 0.92 0 -4.83261e-16 
440 1 440 0.64 0.96 0 -4.59119e-16 
441 1 441 0.64 1 0 -4.28663e-16 
442 1 442 0.68 0 0 0 
443 1 443 0.68 0.04 0 -1.76601e-17 
444 1 444 0.68 0.08 0 -3.92744e-17 
445 1 445 0.68 0.12 0 -6.98641e-17 
446 1 446 0.68 0.16 0 -1.15286e-16 
447 1 447 0.68 0.2 0 -1.81678e-16 
448 1 448 0.68 0.24 0 -2.75101e-16 
449 1 449 0.68 0.28 0 -4.03175e-16 
450 1 450 0.68 0.32 0 -5.7648e-16 
451 1 451 0.68 0.36 0 -8.07818e-16 
452 1 452 0.68 0.4 0 -1.1193e-15 
453 1 453 0.68 0.44 0 -1.53876e-15 
454 1 454 0.68 0.48 0 -2.0638e-15 
455 1 455 0.68 0.52 0 -2.66424e-15 
456 1 456 0.68 0.56 0 -3.32626e-15 
457 1 457 0.68 0.6 0 -4.02829e-15 
458 1 458 0.68 0.64 0 -4.71798e-15 
459 1 459 0.68 0.68 0 -5.35096e-15 
460 1 460 0.68 0.72 0 -5.88686e-15 
461 1 461 0.68 0.76 0 -6.2959e-15 
462 1 462 0.68 0.8 0 -6.59812e-15 
463 1 463 0.68 0.84 0 -6.8291e-15 
464 1 464 0.68 0.88 0 -7.01853e-15 
465 1 465 0.68 0.92 0 -7.19902e-15 
466 1 466 0.68 0.96 0 -7.27893e-15 
467 1 467 0.68 1 0 -7.2673e-15 
468 1 468 0.72 0 0 0 
469 1 469 0.72 0.04 0 -1.542e-16 
470 1 470 0.72 0.08 0 -3.39632e-16 
471 1 471 0.72 0.12 0 -6.01427e-16 
472 1 472 0.72 0.16 0 -1.0028e-15 
473 1 473 0.72 0.2 0 -1.62977e-15 
474 1 474 0.72 0.24 0 -2.5982e-15 
475 1 475 0.72 0.28 0 -4.02323e-15 
476 1 476 0.72 0.32 0 -5.95179e-15 
477 1 477 0.72 0.36 0 -8.37257e-15 
478 1 478 0.72 0.4 0 -1.12975e-14 
479 1 479 0.72 0.44 0 -1.47621e-14 
480 1 480 0.72 0.48 0 -1.86854e-14 
481 1 481 0.72 0.52 0 -2.29166e-14 
482 1 482 0.72 0.56 0 -2.74396e-14 
483 1 483 0.72 0.6 0 -3.20332e-14 
484 1 484 0.72 0.64 0 -3.62074e-14 
485 1 485 0.72 0.68 0 -3.98404e-14 
486 1 486 0.72 0.72 0 -4.29206e-14 
487 1 487 0.72 0.76 0 -4.51379e-14 
488 1 488 0.72 0.8 0 -4.63938e-14 
489 1 489 0.72 0.84 0 -4.69476e-14 
490 1 490 0.72 0.88 0 -4.73437e-14 
491 1 491 0.72 0.92 0 -4.81085e-14 
492 1 492 0.72 0.96 0 -5.01764e-14 
493 1 493 0.72 1 0 -5.17323e-14 
494 1 494 0.76 0 0 0 
495 1 495 0.76 0.04 0 -1.64693e-15 
496 1 496 0.76 0.08 0 -3.72195e-15 
497 1 497 0.76 0.12 0 -6.72009e-15 
498 1 498 0.76 0.16 0 -1.11194e-14 
499 1 499 0.76 0.2 0 -1.73892e-14 
500 1 500 0.76 0.24 0 -2.60148e-14 
501 1 501 0.76 0.28 0 -3.72243e-14 
502 1 502 0.76 0.32 0 -5.57041e-14 
503 1 503 0.76 0.36 0 -9.10503e-14 
504 1 504 0.76 0.4 0 -1.3892e-13 
505 1 505 0.76 0.44 0 -1.89823e-13 
506 1 506 0.76 0.48 0 -2.5652e-13 
507 1 507 0.76 0.52 0 -3.37643e-13 
508 1 508 0.76 0.56 0 -4.05582e-13 
509 1 509 0.76 0.6 0 -4.64321e-13 
510 1 510 0.76 0.64 0 -5.29806e-13 
511 1 511 0.76 0.68 0 -5.83684e-13 
512 1 512 0.76 0.72 0 -6.13319e-13 
513 1 513 0.76 0.76 0 -6.39959e-13 
514 1 514 0.76 0.8 0 -6.80214e-13 
515 1 515 0.76 0.84 0 -7.15891e-13 
516 1 516 0.76 0.88 0 -7.29993e-13 
517 1 517 0.76 0.92 0 -7.33043e-13 
518 1 518 0.76 0.96 0 -7.52597e-13 
519 1 519 0.76 1 0 -7.71013e-13 
520 1 520 0.8 0 0 0 
521 1 521 0.8 0.04 0 -1.29969e-14 
522 1 522 0.8 0.08 0 -2.80101e-14 
523 1 523 0.8 0.12 0 -5.21361e-14 
524 1 524 0.8 0.16 0 -9.67577e-14 
525 1 525 0.8 0.2 0 -1.68286e-13 
526 1 526 0.8 0.24 0 -2.68123e-13 
527 1 527 0.8 0.28 0 -3.96178e-13 
528 1 528 0.8 0.32 0 -5.61303e-13 
529 1 529 0.8 0.36 0 -7.73634e-13 
530 1 530 0.8 0.4 0 -1.00964e-12 
531 1 531 0.8 0.44 0 -1.24914e-12 
532 1 532 0.8 0.48 0 -1.51835e-12 
533 1 533 0.8 0.52 0 -1.82839e-12 
534 1 534 0.8 0.56 0 -2.1328e-12 
535 1 535 0.8 0.6 0 -2.39562e-12 
536 1 536 0.8 0.64 0 -2.64178e-12 
537 1 537 0.8 0.68 0 -2.86747e-12 
538 1 538 0.8 0.72 0 -3.03824e-12 
539 1 539 0.8 0.76 0 -3.17517e-12 
540 1 540 0.8 0.8 0 -3.28348e-12 
541 1 541 0.8 0.84 0 -3.31658e-12 
542 1 542 0.8 0.88 0 -3.26921e-12 
543 1 543 0.8 0.92 0 -3.22734e-12 
544 1 544 0.8 0.96 0 -3.37544e-12 
545 1 545 0.8 1 0 -3.52666e-12 
546 1 546 0.84 0 0 0 
547 1 547 0.84 0.04 0 -1.36458e-13 
548 1 548 0.84 0.08 0 -3.1989e-13 
549 1 549 0.84 0.12 0 -5.56858e-13 
550 1 550 0.84 0.16 0 -8.75173e-13 
551 1 551 0.84 0.2 0 -1.3113e-12 
552 1 552 0.84 0.24 0 -1.83956e-12 
553 1 553 0.84 0.28 0 -2.45209e-12 
554 1 554 0.84 0.32 0 -3.2008e-12 
555 1 555 0.84 0.36 0 -4.08449e-12 
556 1 556 0.84 0.4 0 -5.07732e-12 
557 1 557 0.84 0.44 0 -6.19917e-12 
558 1 558 0.84 0.48 0 -7.40792e-12 
559 1 559 0.84 0.52 0 -8.66083e-12 
560 1 560 0.84 0.56 0 -9.94524e-12 
561 1 561 0.84 0.6 0 -1.11434e-11 
562 1 562 0.84 0.64 0 -1.22537e-11 
563 1 563 0.84 0.68 0 -1.33283e-11 
564 1 564 0.84 0.72 0 -1.42327e-11 
565 1 565 0.84 0.76 0 -1.48969e-11 
566 1 566 0.84 0.8 0 -1.53212e-11 
567 1 567 0.84 0.84 0 -1.54312e-11 
568 1 568 0.84 0.88 0 -1.51966e-11 
569 1 569 0.84 0.92 0 -1.47998e-11 
570 1 570 0.84 0.96 0 -1.51158e-11 
571 1 571 0.84 1 0 -1.56289e-11 
572 1 572 0.88 0 0 0 
573 1 573 0.88 0.04 0 -8.59099e-13 
574 1 574 0.88 0.08 0 -1.82185e-12 
575 1 575 0.88 0.12 0 -2.90867e-12 
576 1 576 0.88 0.16 0 -4.18313e-12 
577 1 577 0.88 0.2 0 -5.79728e-12 
578 1 578 0.88 0.24 0 -7.81961e-12 
579 1 579 0.88 0.28 0 -1.024e-11 
580 1 580 0.88 0.32 0 -1.30446e-11 
581 1 581 0.88 0.36 0 -1.62081e-11 
582 1 582 0.88 0.4 0 -1.97577e-11 
583 1 583 0.88 0.44 0 -2.37101e-11 
584 1 584 0.88 0.48 0 -2.79582e-11 
585 1 585 0.88 0.52 0 -3.23843e-11 
586 1 586 0.88 0.56 0 -3.68485e-11 
587 1 587 0.88 0.6 0 -4.11773e-11 
588 1 588 0.88 0.64 0 -4.5236e-11 
589 1 589 0.88 0.68 0 -4.87378e-11 
590 1 590 0.88 0.72 0 -5.13842e-11 
591 1 591 0.88 0.76 0 -5.31122e-11 
592 1 592 0.88 0.8 0 -5.38585e-11 
593 1 593 0.88 0.84 0 -5.35879e-11 
594 1 594 0.88 0.88 0 -5.23476e-11 
595 1 595 0.88 0.92 0 -5.04592e-11 
596 1 596 0.88 0.96 0 -5.11477e-11 
597 1 597 0.88 1 0 -5.28627e-11 
598 1 598 0.92 0 0 0 
599 1 599 0.92 0.04 0 -4.11356e-12 
600 1 600 0.92 0.08 0 -8.04349e-12 
601 1 601 0.92 0.12 0 -1.23338e-11 
602 1 602 0.92 0.16 0 -1.75536e-11 
603 1 603 0.92 0.2 0 -2.3965e-11 
604 1 604 0.92 0.24 0 -3.1784e-11 
605 1 605 0.92 0.28 0 -4.11041e-11 
606 1 606 0.92 0.32 0 -5.20044e-11 
607 1 607 0.92 0.36 0 -6.46978e-11 
608 1 608 0.92 0.4 0 -7.92192e-11 
609 1 609 0.92 0.44 0 -9.53427e-11 
610 1 610 0.92 0.48 0 -1.12864e-10 
611 1 611 0.92 0.52 0 -1.31446e-10 
612 1 612 0.92 0.56 0 -1.50371e-10 
613 1 613 0.92 0.6 0 -1.68965e-10 
614 1 614 0.92 0.64 0 -1.86499e-10 
615 1 615 0.92 0.68 0 -2.01999e-10 
616 1 616 0.92 0.72 0 -2.14698e-10 
617 1 617 0.92 0.76 0 -2.23906e-10 
618 1 618 0.92 0.8 0 -2.2875e-10 
619 1 619 0.92 0.84 0 -2.28946e-10 
620 1 620 0.92 0.88 0 -2.24717e-10 
621 1 621 0.92 0.92 0 -2.17637e-10 
622 1 622 0.92 0.96 0 -2.20869e-10 
623 1 623 0.92 1 0 -2.2797e-10 
624 1 624 0.96 0 0 0 
625 1 625 0.96 0.04 0 -1.62569e-11 
626 1 626 0.96 0.08 0 -3.11347e-11 
627 1 627 0.96 0.12 0 -4.68788e-11 
628 1 628 0.96 0.16 0 -6.59485e-11 
629 1 629 0.96 0.2 0 -8.93007e-11 
630 1 630 0.96 0.24 0 -1.17578e-10 
631 1 631 0.96 0.28 0 -1.51273e-10 
632 1 632 0.96 0.32 0 -1.90839e-10 
633 1 633 0.96 0.36 0 -2.36516e-10 
634 1 634 0.96 0.4 0 -2.87859e-10 
635 1 635 0.96 0.44 0 -3.44205e-10 
636 1 636 0.96 0.48 0 -4.04688e-10 
637 1 637 0.96 0.52 0 -4.67713e-10 
638 1 638 0.96 0.56 0 -5.31164e-10 
639 1 639 0.96 0.6 0 -5.92597e-10 
640 1 640 0.96 0.64 0 -6.49261e-10 
641 1 641 0.96 0.68 0 -6.9859e-10 
642 1 642 0.96 0.72 0 -7.37945e-10 
643 1 643 0.96 0.76 0 -7.64595e-10 
644 1 644 0.96 0.8 0 -7.76219e-10 
645 1 645 0.96 0.84 0 -7.72115e-10 
646 1 646 0.96 0.88 0 -7.52977e-10 
647 1 647 0.96 0.92 0 -7.24737e-10 
648 1 648 0.96 0.96 0 -7.35757e-10 
649 1 649 0.96 1 0 -7.61764e-10 
650 1 650 1 0 0 0 
651 1 651 1 0.04 0 -5.94494e-11 
652 1 652 1 0.08 0 -1.13677e-10 
653 1 653 1 0.12 0 -1.71165e-10 
654 1 654 1 0.16 0 -2.40552e-10 
655 1 655 1 0.2 0 -3.25667e-10 
656 1 656 1 0.24 0 -4.30011e-10 
657 1 657 1 0.28 0 -5.56431e-10 
658 1 658 1 0.32 0 -7.0673e-10 
659 1 659 1 0.36 0 -8.81609e-10 
660 1 660 1 0.4 0 -1.08061e-09 
661 1 661 1 0.44 0 -1.30197e-09 
662 1 662 1 0.48 0 -1.54187e-09 
663 1 663 1 0.52 0 -1.79478e-09 
664 1 664 1 0.56 0 -2.05356e-09 
665 1 665 1 0.6 0 -2.30858e-09 
666 1 666 1 0.64 0 -2.54884e-09 
667 1 667 1 0.68 0 -2.76317e-09 
668 1 668 1 0.72 0 -2.93945e-09 
669 1 669 1 0.76 0 -3.06664e-09 
670 1 670 1 0.8 0 -3.13504e-09 
671 1 671 1 0.84 0 -3.14072e-09 
672 1 672 1 0.88 0 -3.08622e-09 
673 1 673 1 0.92 0 -2.99271e-09 
674 1 674 1 0.96 0 -3.04163e-09 
675 1 675 1 1 0 -3.14208e-09 
676 1 676 1.04 0 0 0 
677 1 677 1.04 0.04 0 -2.08817e-10 
678 1 678 1.04 0.08 0 -3.98537e-10 
679 1 679 1.04 0.12 0 -5.99052e-10 
680 1 680 1.04 0.16 0 -8.41037e-10 
681 1 681 1.04 0.2 0 -1.13811e-09 
682 1 682 1.04 0.24 0 -1.50142e-09 
683 1 683 1.04 0.28 0 -1.93942e-09 
684 1 684 1.04 0.32 0 -2.45704e-09 
685 1 685 1.04 0.36 0 -3.05523e-09 
686 1 686 1.04 0.4 0 -3.73068e-09 
687 1 687 1.04 0.44 0 -4.47486e-09 
688 1 688 1.04 0.48 0 -5.27304e-09 
689 1 689 1.04 0.52 0 -6.10421e-09 
690 1 690 1.04 0.56 0 -6.94226e-09 
691 1 691 1.04 0.6 0 -7.75642e-09 
692 1 692 1.04 0.64 0 -8.51158e-09 
693 1 693 1.04 0.68 0 -9.17078e-09 
694 1 694 1.04 0.72 0 -9.6964e-09 
695 1 695 1.04 0.76 0 -1.00551e-08 
696 1 696 1.04 0.8 0 -1.02158e-08 
697 1 697 1.04 0.84 0 -1.01688e-08 
698 1 698 1.04 0.88 0 -9.9279e-09 
699 1 699 1.04 0.92 0 -9.56638e-09 
700 1 700 1.04 0.96 0 -9.72756e-09 
701 1 701 1.04 1 0 -1.0083e-08 
702 1 702 1.08 0 0 0 
703 1 703 1.08 0.04 0 -7.13921e-10 
704 1 704 1.08 0.08 0 -1.36301e-09 
705 1 705 1.08 0.12 0 -2.05148e-09 
706 1 706 1.08 0.16 0 -2.88833e-09 
707 1 707 1.08 0.2 0 -3.92485e-09 
708 1 708 1.08 0.24 0 -5.20312e-09 
709 1 709 1.08 0.28 0 -6.75711e-09 
710 1 710 1.08 0.32 0 -8.61199e-09 
711 1 711 1.08 0.36 0 -1.07802e-08 
712 1 712 1.08 0.4 0 -1.32584e-08 
713 1 713 1.08 0.44 0 -1.60237e-08 
714 1 714 1.08 0.48 0 -1.90306e-08 
715 1 715 1.08 0.52 0 -2.22089e-08 
716 1 716 1.08 0.56 0 -2.54635e-08 
717 1 717 1.08 0.6 0 -2.86776e-08 
718 1 718 1.08 0.64 0 -3.17156e-08 
719 1 719 1.08 0.68 0 -3.44305e-08 
720 1 720 1.08 0.72 0 -3.66699e-08 
721 1 721 1.08 0.76 0 -3.82955e-08 
722 1 722 1.08 0.8 0 -3.91778e-08 
723 1 723 1.08 0.84 0 -3.92673e-08 
724 1 724 1.08 0.88 0 -3.86043e-08 
725 1 725 1.08 0.92 0 -3.74475e-08 
726 1 726 1.08 0.96 0 -3.81263e-08 
727 1 727 1.08 1 0 -3.94475e-08 
728 1 728 1.12 0 0 0 
729 1 729 1.12 0.04 0 -2.37252e-09 
730 1 730 1.12 0.08 0 -4.52785e-09 
731 1 731 1.12 0.12 0 -6.81718e-09 
732 1 732 1.12 0.16 0 -9.60347e-09 
733 1 733 1.12 0.2 0 -1.30535e-08 
734 1 734 1.12 0.24 0 -1.73026e-08 
735 1 735 1.12 0.28 0 -2.24523e-08 
736 1 736 1.12 0.32 0 -2.85689e-08 
737 1 737 1.12 0.36 0 -3.56727e-08 
738 1 738 1.12 0.4 0 -4.37272e-08 
739 1 739 1.12 0.44 0 -5.263e-08 
740 1 740 1.12 0.48 0 -6.22067e-08 
741 1 741 1.12 0.52 0 -7.22103e-08 
742 1 742 1.12 0.56 0 -8.23238e-08 
743 1 743 1.12 0.6 0 -9.21695e-08 
744 1 744 1.12 0.64 0 -1.01323e-07 
745 1 745 1.12 0.68 0 -1.09337e-07 
746 1 746 1.12 0.72 0 -1.15753e-07 
747 1 747 1.12 0.76 0 -1.20161e-07 
748 1 748 1.12 0.8 0 -1.22181e-07 
749 1 749 1.12 0.84 0 -1.21695e-07 
750 1 750 1.12 0.88 0 -1.18892e-07 
751 1 751 1.12 0.92 0 -1.14635e-07 
752 1 752 1.12 0.96 0 -1.1682e-07 
753 1 753 1.12 1 0 -1.21307e-07 
754 1 754 1.16 0 0 0 
755 1 755 1.16 0.04 0 -7.69825e-09 
756 1 756 1.16 0.08 0 -1.46962e-08 
757 1 757 1.16 0.12 0 -2.21629e-08 
758 1 758 1.16 0.16 0 -3.13093e-08 
759 1 759 1.16 0.2 0 -4.27123e-08 
760 1 760 1.16 0.24 0 -5.68629e-08 
761 1 761 1.16 0.28 0 -7.41576e-08 
762 1 762 1.16 0.32 0 -9.48922e-08 
763 1 763 1.16 0.36 0 -1.19227e-07 
764 1 764 1.16 0.4 0 -1.4714e-07 
765 1 765 1.16 0.44 0 -1.78387e-07 
766 1 766 1.16 0.48 0 -2.12463e-07 
767 1 767 1.16 0.52 0 -2.48578e-07 
768 1 768 1.16 0.56 0 -2.85656e-07 
769 1 769 1.16 0.6 0 -3.22354e-07 
770 1 770 1.16 0.64 0 -3.57109e-07 
771 1 771 1.16 0.68 0 -3.88224e-07 
772 1 772 1.16 0.72 0 -4.13935e-07 
773 1 773 1.16 0.76 0 -4.32646e-07 
774 1 774 1.16 0.8 0 -4.42867e-07 
775 1 775 1.16 0.84 0 -4.44039e-07 
776 1 776 1.16 0.88 0 -4.36722e-07 
777 1 777 1.16 0.92 0 -4.23801e-07 
778 1 778 1.16 0.96 0 -4.32384e-07 
779 1 779 1.16 1 0 -4.48188e-07 
780 1 780 1.2 0 0 0 
781 1 781 1.2 0.04 0 -2.43175e-08 
782 1 782 1.2 0.08 0 -4.64048e-08 
783 1 783 1.2 0.12 0 -7.00066e-08 
784 1 784 1.2 0.16 0 -9.89809e-08 
785 1 785 1.2 0.2 0 -1.35136e-07 
786 1 786 1.2 0.24 0 -1.7997e-07 
787 1 787 1.2 0.28 0 -2.3463e-07 
788 1 788 1.2 0.32 0 -2.99884e-07 
789 1 789 1.2 0.36 0 -3.76009e-07 
790 1 790 1.2 0.4 0 -4.62663e-07 
791 1 791 1.2 0.44 0 -5.58777e-07 
792 1 792 1.2 0.48 0 -6.62487e-07 
793 1 793 1.2 0.52 0 -7.71112e-07 
794 1 794 1.2 0.56 0 -8.81196e-07 
795 1 795 1.2 0.6 0 -9.8861e-07 
796 1 796 1.2 0.64 0 -1.08869e-06 
797 1 797 1.2 0.68 0 -1.17653e-06 
798 1 798 1.2 0.72 0 -1.24707e-06 
799 1 799 1.2 0.76 0 -1.29583e-06 
800 1 800 1.2 0.8 0 -1.31865e-06 
801 1 801 1.2 0.84 0 -1.31424e-06 
802 1 802 1.2 0.88 0 -1.28497e-06 
803 1 803 1.2 0.92 0 -1.23994e-06 
804 1 804 1.2 0.96 0 -1.26668e-06 
805 1 805 1.2 1 0 -1.31793e-06 
806 1 806 1.24 0 0 0 
807 1 807 1.24 0.04 0 -7.48436e-08 
808 1 808 1.24 0.08 0 -1.42823e-07 
809 1 809 1.24 0.12 0 -2.15733e-07 
810 1 810 1.24 0.16 0 -3.05751e-07 
811 1 811 1.24 0.2 0 -4.18763e-07 
812 1 812 1.24 0.24 0 -5.59835e-07 
813 1 813 1.24 0.28 0 -7.33104e-07 
814 1 814 1.24 0.32 0 -9.4172e-07 
815 1 815 1.24 0.36 0 -1.18746e-06 
816 1 816 1.24 0.4 0 -1.47028e-06 
817 1 817 1.24 0.44 0 -1.78783e-06 
818 1 818 1.24 0.48 0 -2.13506e-06 
819 1 819 1.24 0.52 0 -2.50398e-06 
820 1 820 1.24 0.56 0 -2.88356e-06 
821 1 821 1.24 0.6 0 -3.25998e-06 
822 1 822 1.24 0.64 0 -3.61704e-06 
823 1 823 1.24 0.68 0 -3.93719e-06 
824 1 824 1.24 0.72 0 -4.20207e-06 
825 1 825 1.24 0.76 0 -4.39519e-06 
826 1 826 1.24 0.8 0 -4.50117e-06 
827 1 827 1.24 0.84 0 -4.51443e-06 
828 1 828 1.24 0.88 0 -4.442e-06 
829 1 829 1.24 0.92 0 -4.31258e-06 
830 1 830 1.24 0.96 0 -4.41047e-06 
831 1 831 1.24 1 0 -4.58124e-06 
832 1 832 1.28 0 0 0 
833 1 833 1.28 0.04 0 -2.24113e-07 
834 1 834 1.28 0.08 0 -4.27493e-07 
835 1 835 1.28 0.12 0 -6.46028e-07 
836 1 836 1.28 0.16 0 -9.16583e-07 
837 1 837 1.28 0.2 0 -1.25676e-06 
838 1 838 1.28 0.24 0 -1.68138e-06 
839 1 839 1.28 0.28 0 -2.202e-06 
840 1 840 1.28 0.32 0 -2.82662e-06 
841 1 841 1.28 0.36 0 -3.55846e-06 
842 1 842 1.28 0.4 0 -4.39469e-06 
843 1 843 1.28 0.44 0 -5.3253e-06 
844 1 844 1.28 0.48 0 -6.33236e-06 
845 1 845 1.28 0.52 0 -7.38981e-06 
846 1 846 1.28 0.56 0 -8.46381e-06 
847 1 847 1.28 0.6 0 -9.51385e-06 
848 1 848 1.28 0.64 0 -1.04941e-05 
849 1 849 1.28 0.68 0 -1.13563e-05 
850 1 850 1.28 0.72 0 -1.20507e-05 
851 1 851 1.28 0.76 0 -1.25334e-05 
852 1 852 1.28 0.8 0 -1.27636e-05 
853 1 853 1.28 0.84 0 -1.27291e-05 
854 1 854 1.28 0.88 0 -1.24569e-05 
855 1 855 1.28 0.92 0 -1.20321e-05 
856 1 856 1.28 0.96 0 -1.23264e-05 
857 1 857 1.28 1 0 -1.28541e-05 
858 1 858 1.32 0 0 0 
859 1 859 1.32 0.04 0 -6.52736e-07 
860 1 860 1.32 0.08 0 -1.24472e-06 
861 1 861 1.32 0.12 0 -1.88267e-06 
862 1 862 1.32 0.16 0 -2.67636e-06 
863 1 863 1.32 0.2 0 -3.67942e-06 
864 1 864 1.32 0.24 0 -4.93849e-06 
865 1 865 1.32 0.28 0 -6.49199e-06 
866 1 866 1.32 0.32 0 -8.36962e-06 
867 1 867 1.32 0.36 0 -1.05888e-05 
868 1 868 1.32 0.4 0 -1.31502e-05 
869 1 869 1.32 0.44 0 -1.60336e-05 
870 1 870 1.32 0.48 0 -1.91939e-05 
871 1 871 1.32 0.52 0 -2.25586e-05 
872 1 872 1.32 0.56 0 -2.60269e-05 