ITEM: TIMESTEP
0
ITEM: NUMBER OF ATOMS
6875
ITEM: BOX BOUNDS sm sm sm
0 4
0 2
0 0
ITEM: ATOMS id type tag x y z damage s11 s22 s33 s12 s13 s23 vx T ienergy 
1 1 1 0.0199978 0.0199995 0 0 -0.019008 -0.0180884 -0.0118789 -0.00666817 0 0 -0.114133 0 0 
2 1 2 0.0199963 0.0599979 0 0 -0.0349842 -0.0236039 -0.018759 -0.00961997 0 0 -0.10165 0 0 
3 1 3 0.0199956 0.0999969 0 0 -0.0497054 -0.034193 -0.0268738 -0.0170289 0 0 -0.2425 0 0 
4 1 4 0.0199957 0.139994 0 0 -0.070213 -0.0485866 -0.0380637 -0.0259497 0 0 -0.269204 0 0 
5 1 5 0.0199941 0.179992 0 0 -0.0892033 -0.057139 -0.0468924 -0.036718 0 0 -0.307114 0 0 
6 1 6 0.019993 0.219989 0 0 -0.110562 -0.0702485 -0.0579446 -0.0476501 0 0 -0.427585 0 0 
7 1 7 0.0199915 0.259988 0 0 -0.121069 -0.0642062 -0.0593756 -0.0559203 0 0 -0.432108 0 0 
8 1 8 0.019991 0.299986 0 0 -0.134029 -0.0662879 -0.0641969 -0.0591934 0 0 -0.341417 0 0 
9 1 9 0.0199898 0.339987 0 0 -0.135597 -0.0591082 -0.0623963 -0.0563931 0 0 -0.465222 0 0 
10 1 10 0.0199902 0.379987 0 0 -0.136273 -0.0617507 -0.0634587 -0.0542155 0 0 -0.329534 0 0 
11 1 11 0.0199891 0.419989 0 0 -0.13116 -0.0536527 -0.0592213 -0.0500131 0 0 -0.487666 0 0 
12 1 12 0.0199886 0.459989 0 0 -0.133162 -0.0635637 -0.063044 -0.047582 0 0 -0.81483 0 0 
13 1 13 0.0199862 0.49999 0 0 -0.132097 -0.0561243 -0.0603165 -0.0473916 0 0 -0.805638 0 0 
14 1 14 0.0199832 0.53999 0 0 -0.138547 -0.0658686 -0.0655124 -0.0436245 0 0 -1.02287 0 0 
15 1 15 0.0199772 0.579991 0 0 -0.13635 -0.0614472 -0.0633909 -0.0440113 0 0 -0.934051 0 0 
16 1 16 0.0199717 0.61999 0 0 -0.14065 -0.0716193 -0.068034 -0.0435163 0 0 -1.23216 0 0 
17 1 17 0.0199678 0.65999 0 0 -0.142705 -0.0665988 -0.067084 -0.0480514 0 0 -1.20297 0 0 
18 1 18 0.0199707 0.699989 0 0 -0.139535 -0.0687695 -0.0667634 -0.0428964 0 0 -1.3155 0 0 
19 1 19 0.0199742 0.73999 0 0 -0.136761 -0.0545966 -0.0613274 -0.0491964 0 0 -0.707462 0 0 
20 1 20 0.019979 0.779991 0 0 -0.138739 -0.0525974 -0.06132 -0.0324639 0 0 -0.960618 0 0 
21 1 21 0.0199835 0.819995 0 0 -0.110388 -0.0311894 -0.0453619 -0.0228157 0 0 -0.619729 0 0 
22 1 22 0.0199894 0.859997 0 0 -0.0845914 -0.023196 -0.0345293 -0.006957 0 0 -0.49097 0 0 
23 1 23 0.0199924 0.9 0 0 -0.0581995 -0.0140163 -0.023126 0.000211503 0 0 -0.385442 0 0 
24 1 24 0.0199964 0.939999 0 0 -0.037897 -0.0314851 -0.0222262 0.00545254 0 0 -0.62105 0 0 
25 1 25 0.019997 0.980001 0 0 0.00677495 0.00101629 -0.00746666 -0.0181981 0 0 -0.0755753 0 0 
26 1 26 0.0599983 0.019998 0 0 -0.0255468 -0.0389278 -0.0206509 -0.0125111 0 0 -0.137852 0 0 
27 1 27 0.0599971 0.0599931 0 0 -0.0466593 -0.0522597 -0.0316904 -0.0159013 0 0 -0.127997 0 0 
28 1 28 0.059993 0.0999884 0 0 -0.0595819 -0.0582161 -0.0377397 -0.025173 0 0 -0.601827 0 0 
29 1 29 0.0599907 0.139982 0 0 -0.0690029 -0.0746224 -0.0460181 -0.0308437 0 0 -0.79479 0 0 
30 1 30 0.0599871 0.179976 0 0 -0.0751296 -0.0737465 -0.0477064 -0.0409429 0 0 -0.624979 0 0 
31 1 31 0.0599844 0.219969 0 0 -0.0966153 -0.0909686 -0.0601206 -0.0457801 0 0 -0.784125 0 0 
32 1 32 0.0599796 0.259964 0 0 -0.109589 -0.0683304 -0.0570218 -0.0530633 0 0 -0.701547 0 0 
33 1 33 0.0599769 0.299962 0 0 -0.13331 -0.0734712 -0.0662752 -0.0503171 0 0 -0.52749 0 0 
34 1 34 0.0599744 0.339962 0 0 -0.132604 -0.0474746 -0.0577112 -0.0469983 0 0 -0.633569 0 0 
35 1 35 0.0599758 0.379963 0 0 -0.140505 -0.0643452 -0.0656539 -0.0415031 0 0 -0.187401 0 0 
36 1 36 0.059976 0.419965 0 0 -0.128417 -0.0407838 -0.0542191 -0.0453296 0 0 0.110567 0 0 
37 1 37 0.0599782 0.459966 0 0 -0.142694 -0.0711441 -0.0685382 -0.040411 0 0 0.218269 0 0 
38 1 38 0.0599788 0.499967 0 0 -0.140129 -0.0512251 -0.0613265 -0.0507092 0 0 0.981546 0 0 
39 1 39 0.0599817 0.539968 0 0 -0.152193 -0.0743031 -0.0725977 -0.037654 0 0 0.695412 0 0 
40 1 40 0.0599873 0.579968 0 0 -0.144166 -0.0616585 -0.0659669 -0.0482091 0 0 1.40972 0 0 
41 1 41 0.059994 0.619968 0 0 -0.148582 -0.0837887 -0.074483 -0.037198 0 0 1.24039 0 0 
42 1 42 0.0599966 0.659967 0 0 -0.132533 -0.0607674 -0.0619503 -0.0536662 0 0 1.69956 0 0 
43 1 43 0.0599945 0.699967 0 0 -0.147106 -0.0723158 -0.0703295 -0.0360587 0 0 0.915104 0 0 
44 1 44 0.0599901 0.739969 0 0 -0.128408 -0.0350197 -0.0523706 -0.0516253 0 0 1.01829 0 0 
45 1 45 0.0599839 0.779974 0 0 -0.137357 -0.0307158 -0.0538598 -0.0317516 0 0 0.303718 0 0 
46 1 46 0.0599831 0.819981 0 0 -0.12591 -0.00635988 -0.0423767 -0.0220571 0 0 -0.262515 0 0 
47 1 47 0.0599848 0.859989 0 0 -0.111012 -0.00820707 -0.0381996 -0.0096586 0 0 -0.04271 0 0 
48 1 48 0.05999 0.899995 0 0 -0.0614564 -0.00420529 -0.0210208 -0.000778569 0 0 -0.39464 0 0 
49 1 49 0.0599954 0.939997 0 0 -0.0389486 -0.015955 -0.0175824 0.000381319 0 0 -0.278201 0 0 
50 1 50 0.0599966 0.979998 0 0 -0.00653807 0.00500741 -0.000484667 -0.017193 0 0 0.0463867 0 0 
51 1 51 0.0999949 0.0199954 0 0 -0.0445167 -0.0745478 -0.0381627 -0.0212951 0 0 -0.423914 0 0 
52 1 52 0.0999887 0.0599873 0 0 -0.0647669 -0.0850026 -0.0479997 -0.0242819 0 0 -0.855449 0 0 
53 1 53 0.099985 0.0999786 0 0 -0.0719733 -0.0831212 -0.0496997 -0.0283266 0 0 -1.09958 0 0 
54 1 54 0.0999839 0.13997 0 0 -0.0755248 -0.0933445 -0.0541163 -0.0294879 0 0 -1.33637 0 0 
55 1 55 0.09998 0.179961 0 0 -0.0740675 -0.0882275 -0.0520122 -0.0421218 0 0 -1.17268 0 0 
56 1 56 0.0999747 0.219953 0 0 -0.0864236 -0.0940563 -0.0578451 -0.0428938 0 0 -1.40929 0 0 
57 1 57 0.0999668 0.259946 0 0 -0.0943064 -0.067369 -0.0518166 -0.0542771 0 0 -1.12467 0 0 
58 1 58 0.09996 0.299944 0 0 -0.11649 -0.0688713 -0.0594102 -0.042451 0 0 -1.00319 0 0 
59 1 59 0.0999556 0.339943 0 0 -0.117176 -0.0409824 -0.0506871 -0.0429477 0 0 -1.06604 0 0 
60 1 60 0.0999552 0.379945 0 0 -0.135284 -0.0632304 -0.0636257 -0.0318917 0 0 -0.967311 0 0 
61 1 61 0.0999549 0.419946 0 0 -0.124777 -0.0450552 -0.0544254 -0.0426953 0 0 -1.03926 0 0 
62 1 62 0.0999542 0.459948 0 0 -0.131897 -0.0643245 -0.0628904 -0.035961 0 0 -1.43308 0 0 
63 1 63 0.0999514 0.499948 0 0 -0.122822 -0.0526539 -0.0562376 -0.0548661 0 0 -1.00565 0 0 
64 1 64 0.0999471 0.539948 0 0 -0.127297 -0.0598894 -0.0599909 -0.0387534 0 0 -1.29558 0 0 
65 1 65 0.0999431 0.579948 0 0 -0.121994 -0.0614476 -0.0587876 -0.0539215 0 0 -0.440074 0 0 
66 1 66 0.0999377 0.619947 0 0 -0.120476 -0.0608442 -0.0581095 -0.0390753 0 0 -0.639443 0 0 
67 1 67 0.099936 0.659946 0 0 -0.111954 -0.0569744 -0.0541343 -0.0530711 0 0 -0.613563 0 0 
68 1 68 0.0999354 0.699947 0 0 -0.117759 -0.0391711 -0.0502882 -0.0443855 0 0 -0.935834 0 0 
69 1 69 0.0999376 0.73995 0 0 -0.137487 -0.0336735 -0.0548526 -0.0454314 0 0 -1.4727 0 0 
70 1 70 0.0999398 0.779957 0 0 -0.12538 -0.00915505 -0.0431093 -0.0361147 0 0 -1.40447 0 0 
71 1 71 0.0999457 0.819966 0 0 -0.12955 0.00430223 -0.0401295 -0.021898 0 0 -1.73156 0 0 
72 1 72 0.0999564 0.859976 0 0 -0.115409 -0.00210108 -0.0376565 -0.0109534 0 0 -1.3807 0 0 
73 1 73 0.0999719 0.899983 0 0 -0.0861766 0.000164038 -0.0275494 0.00834092 0 0 -1.47918 0 0 
74 1 74 0.0999855 0.939988 0 0 -0.0520029 0.00044115 -0.0165096 -0.00879095 0 0 -0.646935 0 0 
75 1 75 0.0999913 0.979991 0 0 -0.0372527 -0.014401 -0.0165428 -0.00628984 0 0 -0.753828 0 0 
76 1 76 0.139995 0.0199926 0 0 -0.0722221 -0.122991 -0.0625779 -0.028984 0 0 -0.331425 0 0 
77 1 77 0.139988 0.0599798 0 0 -0.085146 -0.11191 -0.0631626 -0.0275531 0 0 -0.969871 0 0 
78 1 78 0.139983 0.0999686 0 0 -0.0816219 -0.104628 -0.0596997 -0.0264287 0 0 -1.30417 0 0 
79 1 79 0.13998 0.139958 0 0 -0.080327 -0.105154 -0.0594493 -0.026955 0 0 -1.75066 0 0 
80 1 80 0.139976 0.179948 0 0 -0.0841622 -0.101437 -0.0594862 -0.0406861 0 0 -1.57897 0 0 
81 1 81 0.139969 0.219939 0 0 -0.0909232 -0.0927847 -0.0588796 -0.0415442 0 0 -1.65495 0 0 
82 1 82 0.139959 0.259932 0 0 -0.0985998 -0.0764687 -0.0561102 -0.0556433 0 0 -1.25466 0 0 
83 1 83 0.139949 0.299929 0 0 -0.11074 -0.0676294 -0.0571704 -0.0424008 0 0 -1.05721 0 0 
84 1 84 0.139943 0.339927 0 0 -0.117003 -0.055002 -0.0551302 -0.0432572 0 0 -0.981349 0 0 
85 1 85 0.139942 0.379927 0 0 -0.125271 -0.0579344 -0.0587175 -0.0313691 0 0 -0.81304 0 0 
86 1 86 0.139943 0.419927 0 0 -0.124343 -0.0578379 -0.0583855 -0.0377767 0 0 -0.634005 0 0 
87 1 87 0.139945 0.459927 0 0 -0.132864 -0.0655825 -0.0636026 -0.0374938 0 0 -0.259181 0 0 
88 1 88 0.139945 0.499926 0 0 -0.140465 -0.0745783 -0.0689267 -0.0493624 0 0 0.518085 0 0 
89 1 89 0.139948 0.539925 0 0 -0.136301 -0.0695145 -0.0659651 -0.040562 0 0 0.920115 0 0 
90 1 90 0.139955 0.579924 0 0 -0.138908 -0.0754466 -0.0687028 -0.0468296 0 0 1.85717 0 0 
91 1 91 0.139963 0.619923 0 0 -0.129517 -0.0599955 -0.0607374 -0.0427919 0 0 2.28329 0 0 
92 1 92 0.139966 0.659924 0 0 -0.139554 -0.0607199 -0.0641881 -0.0493333 0 0 2.16953 0 0 
93 1 93 0.139961 0.699926 0 0 -0.133892 -0.0401404 -0.0557754 -0.0543299 0 0 1.73081 0 0 
94 1 94 0.139951 0.739932 0 0 -0.137116 -0.011741 -0.0477029 -0.0515495 0 0 0.585613 0 0 
95 1 95 0.139943 0.779941 0 0 -0.152748 -0.0227517 -0.0562489 -0.0354801 0 0 -0.550822 0 0 
96 1 96 0.139941 0.819951 0 0 -0.128315 0.0140133 -0.0366227 -0.0267375 0 0 -0.814577 0 0 
97 1 97 0.139948 0.859961 0 0 -0.127584 -0.00347616 -0.0419953 0.00229866 0 0 -1.09052 0 0 
98 1 98 0.139963 0.89997 0 0 -0.103091 0.00571891 -0.0311892 0.0121055 0 0 -1.17372 0 0 
99 1 99 0.139978 0.939978 0 0 -0.0845979 0.00635039 -0.0250724 0.00560949 0 0 -0.701359 0 0 
100 1 100 0.139987 0.979984 0 0 -0.0489242 0.00194148 -0.0150507 -0.000579381 0 0 -1.25412 0 0 
101 1 101 0.179991 0.0199901 0 0 -0.0952412 -0.166773 -0.0839947 -0.0388005 0 0 -0.619084 0 0 
102 1 102 0.179978 0.059973 0 0 -0.105034 -0.140211 -0.0786179 -0.0299367 0 0 -1.62554 0 0 
103 1 103 0.179974 0.0999597 0 0 -0.10296 -0.126855 -0.073675 -0.0234224 0 0 -1.83549 0 0 
104 1 104 0.179973 0.139947 0 0 -0.0993408 -0.123352 -0.0713867 -0.0260748 0 0 -2.09788 0 0 
105 1 105 0.179968 0.179936 0 0 -0.0858856 -0.10123 -0.0599727 -0.0373412 0 0 -1.93558 0 0 
106 1 106 0.17996 0.219927 0 0 -0.0827415 -0.088329 -0.0548231 -0.0424169 0 0 -1.76895 0 0 
107 1 107 0.179948 0.259921 0 0 -0.0874283 -0.0760336 -0.0523844 -0.0567417 0 0 -1.41739 0 0 
108 1 108 0.179935 0.299916 0 0 -0.0975471 -0.0709962 -0.0540191 -0.0458206 0 0 -1.29111 0 0 
109 1 109 0.179927 0.339913 0 0 -0.107049 -0.0607555 -0.0537853 -0.04417 0 0 -1.24971 0 0 
110 1 110 0.179924 0.379911 0 0 -0.114305 -0.0638275 -0.0570924 -0.0308598 0 0 -1.37837 0 0 
111 1 111 0.179924 0.41991 0 0 -0.110349 -0.0577082 -0.0538561 -0.0375002 0 0 -1.64074 0 0 
112 1 112 0.179923 0.459909 0 0 -0.110261 -0.0697999 -0.0577057 -0.041512 0 0 -1.81889 0 0 
113 1 113 0.179921 0.499906 0 0 -0.0933175 -0.0550344 -0.0475389 -0.0503394 0 0 -1.59895 0 0 
114 1 114 0.179918 0.539904 0 0 -0.0949189 -0.0694788 -0.052682 -0.0462461 0 0 -1.06247 0 0 
115 1 115 0.179913 0.579901 0 0 -0.087854 -0.0439475 -0.0422312 -0.0528384 0 0 -0.0808204 0 0 
116 1 116 0.179909 0.619901 0 0 -0.0961536 -0.0517934 -0.0474102 -0.0467735 0 0 0.0688207 0 0 
117 1 117 0.179905 0.659901 0 0 -0.088305 -0.0163025 -0.0335137 -0.0599113 0 0 0.0016466 0 0 
118 1 118 0.179901 0.699906 0 0 -0.113867 -0.0294262 -0.0459202 -0.0576115 0 0 -0.712359 0 0 
119 1 119 0.179898 0.739912 0 0 -0.111525 0.00820399 -0.0331035 -0.066881 0 0 -1.30826 0 0 
120 1 120 0.179896 0.779922 0 0 -0.131933 0.000778163 -0.0420289 -0.0442527 0 0 -2.20059 0 0 
121 1 121 0.179902 0.819932 0 0 -0.145562 3.24936e-05 -0.0466342 -0.0340164 0 0 -2.52464 0 0 
122 1 122 0.179915 0.859944 0 0 -0.132554 0.0159668 -0.0373506 -0.00139957 0 0 -2.41441 0 0 
123 1 123 0.179938 0.899956 0 0 -0.129199 -4.84771e-05 -0.0414078 0.0137927 0 0 -2.04665 0 0 
124 1 124 0.179958 0.939966 0 0 -0.104734 0.0158564 -0.0284869 0.00391635 0 0 -1.52318 0 0 
125 1 125 0.179975 0.979973 0 0 -0.0693394 -0.0049726 -0.0238164 0.00741256 0 0 -2.08298 0 0 
126 1 126 0.21999 0.019988 0 0 -0.111194 -0.199187 -0.0995157 -0.048113 0 0 -0.494454 0 0 
127 1 127 0.219976 0.0599672 0 0 -0.117302 -0.168931 -0.0917648 -0.0298789 0 0 -1.52082 0 0 
128 1 128 0.21997 0.0999505 0 0 -0.106278 -0.142169 -0.0796466 -0.0212069 0 0 -2.01678 0 0 
129 1 129 0.219968 0.139937 0 0 -0.102219 -0.13128 -0.0748517 -0.0259684 0 0 -2.23178 0 0 
130 1 130 0.219963 0.179925 0 0 -0.094456 -0.105219 -0.0640003 -0.0373744 0 0 -1.994 0 0 
131 1 131 0.219955 0.219916 0 0 -0.0989535 -0.0979323 -0.0630999 -0.0481641 0 0 -1.58124 0 0 
132 1 132 0.21994 0.259909 0 0 -0.104065 -0.0878457 -0.0615031 -0.0613946 0 0 -1.25027 0 0 
133 1 133 0.219927 0.299903 0 0 -0.106486 -0.0835318 -0.0609018 -0.048687 0 0 -1.06367 0 0 
134 1 134 0.219917 0.339898 0 0 -0.108108 -0.0722957 -0.0578246 -0.0487229 0 0 -0.69347 0 0 
135 1 135 0.219914 0.379895 0 0 -0.118426 -0.0791495 -0.0633313 -0.0308669 0 0 -1.04556 0 0 
136 1 136 0.219915 0.419891 0 0 -0.116611 -0.0706933 -0.0600333 -0.0372066 0 0 -0.94514 0 0 
137 1 137 0.219917 0.459888 0 0 -0.123916 -0.0853694 -0.0670846 -0.0363188 0 0 -0.646057 0 0 
138 1 138 0.21992 0.499884 0 0 -0.111702 -0.0727386 -0.0591178 -0.0425984 0 0 -0.0925916 0 0 
139 1 139 0.219924 0.53988 0 0 -0.118283 -0.0900751 -0.0667851 -0.0414236 0 0 0.744098 0 0 
140 1 140 0.219929 0.579876 0 0 -0.107293 -0.0574728 -0.0528053 -0.0489142 0 0 1.81565 0 0 
141 1 141 0.219935 0.619876 0 0 -0.12471 -0.0617799 -0.059773 -0.0473064 0 0 2.41085 0 0 
142 1 142 0.219935 0.659878 0 0 -0.133785 -0.0375615 -0.0549138 -0.063353 0 0 2.77041 0 0 
143 1 143 0.219925 0.699883 0 0 -0.143081 -0.0252813 -0.0539572 -0.0663939 0 0 1.97257 0 0 
144 1 144 0.21991 0.739891 0 0 -0.162151 -0.0302224 -0.0616568 -0.0707872 0 0 0.655811 0 0 
145 1 145 0.219898 0.7799 0 0 -0.152859 0.0032285 -0.0479489 -0.0529997 0 0 -0.571537 0 0 
146 1 146 0.219894 0.819912 0 0 -0.163717 -0.0110431 -0.0560036 -0.0441672 0 0 -1.17551 0 0 
147 1 147 0.219902 0.859923 0 0 -0.162138 0.00145196 -0.0514908 -0.00770467 0 0 -1.93858 0 0 
148 1 148 0.219921 0.899936 0 0 -0.152598 0.00689823 -0.0466813 -0.00411999 0 0 -1.80452 0 0 
149 1 149 0.219942 0.939947 0 0 -0.128139 0.00132069 -0.0406496 -0.00158343 0 0 -1.72074 0 0 
150 1 150 0.219964 0.979956 0 0 -0.0926167 0.00121061 -0.0292962 0.00538362 0 0 -2.35264 0 0 
151 1 151 0.259986 0.0199869 0 0 -0.108127 -0.213032 -0.102978 -0.0554031 0 0 -0.653108 0 0 
152 1 152 0.259967 0.0599629 0 0 -0.111871 -0.190765 -0.0970273 -0.030363 0 0 -1.73366 0 0 
153 1 153 0.259961 0.0999428 0 0 -0.114299 -0.164807 -0.0894798 -0.020759 0 0 -2.1105 0 0 
154 1 154 0.25996 0.139927 0 0 -0.115189 -0.144285 -0.0831812 -0.0267311 0 0 -2.15214 0 0 
155 1 155 0.259954 0.179914 0 0 -0.110173 -0.118851 -0.0734126 -0.0395007 0 0 -2.06597 0 0 
156 1 156 0.259944 0.219905 0 0 -0.110506 -0.105397 -0.0691975 -0.0516817 0 0 -1.70863 0 0 
157 1 157 0.259928 0.259897 0 0 -0.109305 -0.0962686 -0.0658819 -0.0644066 0 0 -1.14684 0 0 
158 1 158 0.259914 0.29989 0 0 -0.107504 -0.0891862 -0.0630372 -0.0518642 0 0 -1.00058 0 0 
159 1 159 0.259903 0.339884 0 0 -0.113274 -0.0927839 -0.0660462 -0.0559189 0 0 -0.702404 0 0 
160 1 160 0.259898 0.379878 0 0 -0.114098 -0.0830712 -0.0631996 -0.035777 0 0 -1.35759 0 0 
161 1 161 0.259898 0.419874 0 0 -0.108035 -0.077755 -0.0595504 -0.0382289 0 0 -1.61101 0 0 
162 1 162 0.259899 0.459869 0 0 -0.0913923 -0.0744825 -0.0531679 -0.0362983 0 0 -1.90681 0 0 
163 1 163 0.2599 0.499865 0 0 -0.0672501 -0.0602143 -0.0408538 -0.041373 0 0 -2.00981 0 0 
164 1 164 0.259898 0.539859 0 0 -0.0638597 -0.0686877 -0.0424784 -0.0454747 0 0 -1.14075 0 0 
165 1 165 0.259892 0.579855 0 0 -0.0577303 -0.0400889 -0.0313429 -0.0532152 0 0 -0.287968 0 0 
166 1 166 0.259883 0.619854 0 0 -0.0696752 -0.0355482 -0.0337152 -0.0560459 0 0 -0.0471958 0 0 
167 1 167 0.259874 0.659855 0 0 -0.0779421 -0.0106186 -0.0283712 -0.069875 0 0 -0.0359058 0 0 
168 1 168 0.259864 0.699861 0 0 -0.0921115 -0.00118033 -0.0298861 -0.0732139 0 0 -0.646296 0 0 
169 1 169 0.259855 0.739868 0 0 -0.110828 -0.000561301 -0.0356882 -0.0819788 0 0 -1.171 0 0 
170 1 170 0.25985 0.779877 0 0 -0.135753 -0.00696997 -0.0457329 -0.0573107 0 0 -2.24479 0 0 
171 1 171 0.259853 0.819887 0 0 -0.14143 0.00113267 -0.0449501 -0.0546509 0 0 -2.32546 0 0 
172 1 172 0.259866 0.859898 0 0 -0.14731 -0.000292365 -0.0472964 -0.0171489 0 0 -2.7853 0 0 
173 1 173 0.25989 0.899909 0 0 -0.151247 0.000324312 -0.0483562 -0.00964227 0 0 -2.73025 0 0 
174 1 174 0.259916 0.939921 0 0 -0.140651 0.00948371 -0.0420429 -0.00645911 0 0 -2.58068 0 0 
175 1 175 0.259945 0.979932 0 0 -0.127535 -0.00337253 -0.0419565 0.0053213 0 0 -2.78422 0 0 
176 1 176 0.299987 0.0199862 0 0 -0.106787 -0.221381 -0.105229 -0.0577122 0 0 -0.481292 0 0 
177 1 177 0.299969 0.0599595 0 0 -0.106469 -0.210762 -0.101714 -0.0314253 0 0 -1.35064 0 0 
178 1 178 0.299959 0.0999358 0 0 -0.106456 -0.181133 -0.0922009 -0.0248887 0 0 -2.00799 0 0 
179 1 179 0.299954 0.139917 0 0 -0.114551 -0.155358 -0.0865273 -0.0284057 0 0 -2.20958 0 0 
180 1 180 0.299946 0.179903 0 0 -0.123697 -0.132042 -0.0819825 -0.0434035 0 0 -1.9439 0 0 
181 1 181 0.299935 0.219892 0 0 -0.131155 -0.121073 -0.0808514 -0.0522527 0 0 -1.54243 0 0 
182 1 182 0.299919 0.259884 0 0 -0.124948 -0.111389 -0.0757504 -0.0642797 0 0 -0.873266 0 0 
183 1 183 0.299905 0.299875 0 0 -0.124789 -0.109082 -0.0749604 -0.0555249 0 0 -0.715033 0 0 
184 1 184 0.299894 0.339867 0 0 -0.127335 -0.112601 -0.0769076 -0.0575724 0 0 -0.296286 0 0 
185 1 185 0.299889 0.379859 0 0 -0.119906 -0.0966382 -0.069407 -0.039005 0 0 -0.557572 0 0 
186 1 186 0.299891 0.419853 0 0 -0.121515 -0.0896331 -0.0676808 -0.039664 0 0 -0.581067 0 0 
187 1 187 0.299895 0.459848 0 0 -0.122578 -0.0953389 -0.0698586 -0.0321993 0 0 -0.540225 0 0 
188 1 188 0.299901 0.499842 0 0 -0.109215 -0.0785601 -0.0601948 -0.035803 0 0 -0.182411 0 0 
189 1 189 0.299907 0.539837 0 0 -0.107597 -0.0877042 -0.0626027 -0.0373394 0 0 0.678031 0 0 
190 1 190 0.299911 0.579833 0 0 -0.0956964 -0.0603478 -0.0500095 -0.0478906 0 0 1.55681 0 0 
191 1 191 0.299912 0.619832 0 0 -0.118134 -0.0601651 -0.0571453 -0.0549852 0 0 2.22115 0 0 
192 1 192 0.299904 0.659833 0 0 -0.140022 -0.0437839 -0.05891 -0.0721306 0 0 2.53426 0 0 
193 1 193 0.299888 0.699838 0 0 -0.15847 -0.0410272 -0.0639414 -0.0745549 0 0 1.91262 0 0 
194 1 194 0.299869 0.739844 0 0 -0.161589 -0.0318931 -0.0620119 -0.087889 0 0 1.25191 0 0 
195 1 195 0.299852 0.779852 0 0 -0.163125 -0.0278703 -0.061213 -0.0664361 0 0 0.00370102 0 0 
196 1 196 0.299846 0.81986 0 0 -0.17473 -0.0353881 -0.0673418 -0.0585967 0 0 -0.685205 0 0 
197 1 197 0.299852 0.859868 0 0 -0.170312 -0.014224 -0.0591418 -0.0273373 0 0 -1.79632 0 0 
198 1 198 0.299871 0.89988 0 0 -0.176563 -0.0183425 -0.0624626 -0.0171878 0 0 -2.09226 0 0 
199 1 199 0.299895 0.939891 0 0 -0.168003 -0.0010293 -0.0541818 -0.00734252 0 0 -2.34388 0 0 
200 1 200 0.299924 0.979903 0 0 -0.15985 0.00126435 -0.0508283 0.00123679 0 0 -2.67615 0 0 
201 1 201 0.339986 0.0199859 0 0 -0.0921326 -0.218434 -0.0995794 -0.0540635 0 0 -0.541932 0 0 
202 1 202 0.339966 0.0599576 0 0 -0.0900067 -0.221756 -0.0999597 -0.0320961 0 0 -1.24242 0 0 
203 1 203 0.339954 0.0999311 0 0 -0.104649 -0.196796 -0.0966482 -0.0306378 0 0 -1.7272 0 0 
204 1 204 0.339946 0.13991 0 0 -0.126065 -0.17719 -0.0972275 -0.0308535 0 0 -2.0919 0 0 
205 1 205 0.339935 0.179894 0 0 -0.130579 -0.145768 -0.0885957 -0.0476912 0 0 -1.90921 0 0 
206 1 206 0.339921 0.219881 0 0 -0.136906 -0.134028 -0.0868561 -0.0537109 0 0 -1.64608 0 0 
207 1 207 0.339906 0.259871 0 0 -0.134983 -0.127118 -0.0840187 -0.0633885 0 0 -1.01872 0 0 
208 1 208 0.339891 0.29986 0 0 -0.131194 -0.125896 -0.0824095 -0.0579346 0 0 -0.693201 0 0 
209 1 209 0.33988 0.339851 0 0 -0.122933 -0.117824 -0.0771716 -0.0558172 0 0 -0.39631 0 0 
210 1 210 0.339875 0.379841 0 0 -0.11926 -0.1114 -0.0739318 -0.0412229 0 0 -0.675627 0 0 
211 1 211 0.339875 0.419834 0 0 -0.109825 -0.0910808 -0.0643913 -0.0399799 0 0 -0.879925 0 0 
212 1 212 0.339878 0.459828 0 0 -0.0916135 -0.0805576 -0.055181 -0.0291296 0 0 -1.29924 0 0 
213 1 213 0.339882 0.499823 0 0 -0.0676618 -0.0593116 -0.0406927 -0.0363621 0 0 -1.21627 0 0 
214 1 214 0.339882 0.539819 0 0 -0.0609003 -0.0534256 -0.036634 -0.0402701 0 0 -0.771848 0 0 
215 1 215 0.339875 0.579815 0 0 -0.0630646 -0.0447638 -0.0345498 -0.053981 0 0 -0.264085 0 0 
216 1 216 0.33986 0.619814 0 0 -0.063855 -0.0297538 -0.0299932 -0.0607519 0 0 -0.0109212 0 0 
217 1 217 0.339844 0.659815 0 0 -0.0676188 -0.0169711 -0.0271009 -0.0740132 0 0 -0.143825 0 0 
218 1 218 0.339828 0.699818 0 0 -0.0830257 -0.0151138 -0.0314442 -0.0734947 0 0 -0.659434 0 0 
219 1 219 0.339816 0.739822 0 0 -0.100747 -0.0223142 -0.0394322 -0.0831982 0 0 -0.914932 0 0 
220 1 220 0.339807 0.779826 0 0 -0.108152 -0.0178524 -0.0403744 -0.065343 0 0 -1.53167 0 0 
221 1 221 0.339808 0.819832 0 0 -0.118575 -0.0231868 -0.0454232 -0.0614482 0 0 -1.54207 0 0 
222 1 222 0.339817 0.859838 0 0 -0.133989 -0.0142744 -0.0475147 -0.0291559 0 0 -2.48202 0 0 
223 1 223 0.339839 0.899848 0 0 -0.15418 -0.00479589 -0.0509453 -0.0210132 0 0 -2.68652 0 0 
224 1 224 0.339864 0.93986 0 0 -0.169822 0.00311479 -0.0534363 -0.00720135 0 0 -2.80432 0 0 
225 1 225 0.339894 0.979874 0 0 -0.186158 -0.00216369 -0.0603625 0.00617131 0 0 -3.15801 0 0 
226 1 226 0.37999 0.0199856 0 0 -0.089531 -0.219258 -0.0990069 -0.045583 0 0 -0.220994 0 0 
227 1 227 0.379973 0.0599563 0 0 -0.0848028 -0.230923 -0.10123 -0.0347789 0 0 -0.639879 0 0 
228 1 228 0.379956 0.0999272 0 0 -0.0921128 -0.208568 -0.0964028 -0.040775 0 0 -1.38986 0 0 
229 1 229 0.379941 0.139904 0 0 -0.113598 -0.184935 -0.0957128 -0.0392734 0 0 -1.98612 0 0 
230 1 230 0.379927 0.179885 0 0 -0.13353 -0.162307 -0.094851 -0.0509757 0 0 -1.79999 0 0 
231 1 231 0.379911 0.21987 0 0 -0.140037 -0.145841 -0.0916553 -0.0522148 0 0 -1.6892 0 0 
232 1 232 0.379896 0.259858 0 0 -0.134555 -0.14015 -0.0880682 -0.0564619 0 0 -1.16815 0 0 
233 1 233 0.379883 0.299845 0 0 -0.123798 -0.133923 -0.0826176 -0.0523571 0 0 -0.577866 0 0 
234 1 234 0.379873 0.339834 0 0 -0.116709 -0.126364 -0.0779196 -0.0509867 0 0 -0.130109 0 0 
235 1 235 0.379868 0.379822 0 0 -0.11647 -0.120906 -0.0760888 -0.040772 0 0 0.0714047 0 0 
236 1 236 0.379868 0.419813 0 0 -0.113885 -0.100849 -0.0688264 -0.0356227 0 0 0.303379 0 0 
237 1 237 0.379874 0.459807 0 0 -0.118349 -0.092507 -0.0675831 -0.0221427 0 0 0.367518 0 0 
238 1 238 0.379883 0.499801 0 0 -0.124907 -0.0839302 -0.0669384 -0.0297298 0 0 1.06149 0 0 
239 1 239 0.379889 0.539798 0 0 -0.120049 -0.0724169 -0.0616857 -0.0295265 0 0 1.34797 0 0 
240 1 240 0.379892 0.579796 0 0 -0.117527 -0.0635613 -0.0580386 -0.0505067 0 0 1.94033 0 0 
241 1 241 0.379888 0.619796 0 0 -0.13552 -0.0640549 -0.063973 -0.0593975 0 0 2.28653 0 0 
242 1 242 0.379875 0.659797 0 0 -0.149221 -0.0601771 -0.0671218 -0.0781022 0 0 2.42836 0 0 
243 1 243 0.379854 0.699799 0 0 -0.161231 -0.0641547 -0.0722494 -0.0789936 0 0 2.1781 0 0 
244 1 244 0.379832 0.739801 0 0 -0.164303 -0.067238 -0.0742216 -0.0847752 0 0 1.59016 0 0 
245 1 245 0.379814 0.779803 0 0 -0.163077 -0.063765 -0.0727145 -0.0651893 0 0 0.603153 0 0 
246 1 246 0.379805 0.819805 0 0 -0.167076 -0.0596333 -0.0726709 -0.0589078 0 0 0.0279412 0 0 
247 1 247 0.379806 0.85981 0 0 -0.169946 -0.039521 -0.0671476 -0.0332602 0 0 -1.21847 0 0 
248 1 248 0.379819 0.899819 0 0 -0.18572 -0.0213672 -0.0663814 -0.0198112 0 0 -1.76721 0 0 
249 1 249 0.379838 0.939831 0 0 -0.195566 -0.000527421 -0.0628651 -0.00539011 0 0 -2.2397 0 0 
250 1 250 0.379864 0.979847 0 0 -0.207448 -0.00199388 -0.0671385 0.00876015 0 0 -3.01043 0 0 
251 1 251 0.419991 0.0199855 0 0 -0.0778018 -0.21655 -0.0943731 -0.0327702 0 0 -0.227265 0 0 
252 1 252 0.419974 0.0599555 0 0 -0.0667633 -0.228184 -0.0945604 -0.0383937 0 0 -0.487827 0 0 
253 1 253 0.419955 0.0999248 0 0 -0.0873573 -0.222113 -0.0992229 -0.0478525 0 0 -1.06227 0 0 
254 1 254 0.419937 0.139899 0 0 -0.103255 -0.189471 -0.0938507 -0.0466245 0 0 -1.64885 0 0 
255 1 255 0.419917 0.179879 0 0 -0.119957 -0.17037 -0.0930841 -0.0540209 0 0 -1.71043 0 0 
256 1 256 0.419899 0.219862 0 0 -0.123061 -0.150155 -0.0875945 -0.0502087 0 0 -1.69366 0 0 
257 1 257 0.419884 0.259848 0 0 -0.121392 -0.144521 -0.0852504 -0.0508136 0 0 -1.04736 0 0 
258 1 258 0.419872 0.299834 0 0 -0.114147 -0.140904 -0.0817651 -0.0461573 0 0 -0.581444 0 0 
259 1 259 0.419862 0.33982 0 0 -0.102166 -0.131744 -0.0749832 -0.0443784 0 0 -0.307402 0 0 
260 1 260 0.419857 0.379807 0 0 -0.095035 -0.119823 -0.0688682 -0.0367367 0 0 0.0296164 0 0 
261 1 261 0.419855 0.419797 0 0 -0.0906439 -0.0998292 -0.0610472 -0.0338948 0 0 0.160367 0 0 
262 1 262 0.419858 0.459789 0 0 -0.083384 -0.0785109 -0.0518814 -0.0222723 0 0 -0.102124 0 0 
263 1 263 0.419862 0.499784 0 0 -0.0744589 -0.0567276 -0.0420367 -0.0335606 0 0 0.34764 0 0 
264 1 264 0.419861 0.539782 0 0 -0.0726606 -0.0449537 -0.0376835 -0.0325248 0 0 0.165292 0 0 
265 1 265 0.419853 0.579781 0 0 -0.0764783 -0.0395681 -0.0371816 -0.0593091 0 0 0.560364 0 0 
266 1 266 0.419834 0.61978 0 0 -0.079565 -0.0376789 -0.0375717 -0.0664069 0 0 0.211428 0 0 
267 1 267 0.419814 0.65978 0 0 -0.0820136 -0.0373661 -0.0382553 -0.0799456 0 0 -0.483677 0 0 
268 1 268 0.419795 0.69978 0 0 -0.0847354 -0.0343376 -0.0381559 -0.0789503 0 0 -0.726056 0 0 
269 1 269 0.419781 0.739781 0 0 -0.0906378 -0.0434567 -0.0429695 -0.0779634 0 0 -0.878473 0 0 
270 1 270 0.419772 0.77978 0 0 -0.0928812 -0.041166 -0.0429573 -0.0610765 0 0 -1.19254 0 0 
271 1 271 0.41977 0.819782 0 0 -0.100117 -0.0362875 -0.0437125 -0.051999 0 0 -1.30769 0 0 
272 1 272 0.419774 0.859785 0 0 -0.121214 -0.0220127 -0.0459075 -0.031722 0 0 -2.01991 0 0 
273 1 273 0.419786 0.899794 0 0 -0.153586 -0.00476103 -0.0507545 -0.0209807 0 0 -2.39246 0 0 
274 1 274 0.419804 0.939806 0 0 -0.183607 0.00439502 -0.0574547 -0.00275043 0 0 -2.8236 0 0 
275 1 275 0.419828 0.979823 0 0 -0.212686 0.00363929 -0.0670131 0.00980892 0 0 -3.69702 0 0 
276 1 276 0.459997 0.0199853 0 0 -0.0938444 -0.227371 -0.102996 -0.0197667 0 0 0.0507388 0 0 
277 1 277 0.459984 0.0599545 0 0 -0.0839811 -0.237951 -0.103221 -0.0398751 0 0 0.10832 0 0 
278 1 278 0.459962 0.0999238 0 0 -0.0817767 -0.222544 -0.0975709 -0.0513983 0 0 -0.562998 0 0 
279 1 279 0.459937 0.139897 0 0 -0.0904271 -0.196224 -0.0919029 -0.0512757 0 0 -1.21794 0 0 
280 1 280 0.459914 0.179874 0 0 -0.104262 -0.175023 -0.0895414 -0.0551749 0 0 -1.30942 0 0 
281 1 281 0.459894 0.219855 0 0 -0.105259 -0.157908 -0.0843692 -0.0456013 0 0 -1.43751 0 0 
282 1 282 0.459879 0.259839 0 0 -0.0950485 -0.141937 -0.0759695 -0.044497 0 0 -0.926624 0 0 
283 1 283 0.459868 0.299823 0 0 -0.0881231 -0.137601 -0.0723565 -0.0388041 0 0 -0.49936 0 0 
284 1 284 0.45986 0.339808 0 0 -0.0799497 -0.130807 -0.067555 -0.0361069 0 0 -0.0116815 0 0 
285 1 285 0.459855 0.379793 0 0 -0.076292 -0.119712 -0.0628206 -0.032836 0 0 0.65351 0 0 
286 1 286 0.459853 0.419781 0 0 -0.0847664 -0.11128 -0.0628334 -0.0307798 0 0 1.04748 0 0 
287 1 287 0.459856 0.459771 0 0 -0.0988818 -0.0899794 -0.0605319 -0.0205417 0 0 1.39724 0 0 
288 1 288 0.459861 0.499766 0 0 -0.123957 -0.0819289 -0.0659951 -0.0305526 0 0 2.28325 0 0 
289 1 289 0.459866 0.539763 0 0 -0.134939 -0.0718944 -0.0662948 -0.026691 0 0 2.07724 0 0 
290 1 290 0.459867 0.579763 0 0 -0.145631 -0.0731413 -0.070123 -0.0569632 0 0 2.49477 0 0 
291 1 291 0.45986 0.619762 0 0 -0.158099 -0.0745894 -0.0745906 -0.0655809 0 0 2.36577 0 0 
292 1 292 0.459844 0.659762 0 0 -0.177422 -0.0886266 -0.0852936 -0.0840305 0 0 2.25866 0 0 
293 1 293 0.459821 0.699762 0 0 -0.187931 -0.0913606 -0.0895427 -0.0819993 0 0 1.88352 0 0 
294 1 294 0.459799 0.739762 0 0 -0.179642 -0.0877046 -0.0857067 -0.078188 0 0 1.30242 0 0 
295 1 295 0.45978 0.779761 0 0 -0.176009 -0.0855477 -0.0838533 -0.063165 0 0 0.641191 0 0 
296 1 296 0.459769 0.819762 0 0 -0.170073 -0.0675156 -0.0761623 -0.0501216 0 0 -0.160667 0 0 
297 1 297 0.459764 0.859766 0 0 -0.169051 -0.0456308 -0.0688214 -0.0379488 0 0 -0.947156 0 0 
298 1 298 0.459766 0.899774 0 0 -0.182997 -0.0206299 -0.0652754 -0.0240208 0 0 -1.74053 0 0 
299 1 299 0.459777 0.939786 0 0 -0.200553 -0.00511302 -0.0659375 -0.00506601 0 0 -2.56974 0 0 
300 1 300 0.459795 0.979802 0 0 -0.224156 -3.46801e-05 -0.0718697 0.00698316 0 0 -3.65156 0 0 
301 1 301 0.499997 0.0199851 0 0 -0.0898652 -0.227877 -0.101882 -0.00896545 0 0 -0.00529546 0 0 
302 1 302 0.499985 0.0599546 0 0 -0.0718675 -0.227569 -0.0960026 -0.0374635 0 0 0.0401853 0 0 
303 1 303 0.499963 0.0999247 0 0 -0.0699723 -0.213192 -0.0907836 -0.0519965 0 0 -0.218458 0 0 
304 1 304 0.499938 0.139897 0 0 -0.0765784 -0.199252 -0.0884313 -0.0541732 0 0 -0.604489 0 0 
305 1 305 0.499911 0.179873 0 0 -0.0771144 -0.176231 -0.0812192 -0.0536385 0 0 -0.847503 0 0 
306 1 306 0.49989 0.219851 0 0 -0.0786656 -0.159073 -0.0762117 -0.0420992 0 0 -0.940123 0 0 
307 1 307 0.499875 0.259833 0 0 -0.0804793 -0.150096 -0.0739117 -0.0380577 0 0 -0.566456 0 0 
308 1 308 0.499864 0.299815 0 0 -0.0719261 -0.138871 -0.067566 -0.0338448 0 0 -0.290313 0 0 
309 1 309 0.499856 0.339799 0 0 -0.0653687 -0.134358 -0.0640144 -0.0324516 0 0 0.0212423 0 0 
310 1 310 0.499851 0.379783 0 0 -0.0583165 -0.120495 -0.0573038 -0.0330739 0 0 0.538103 0 0 
311 1 311 0.499846 0.419769 0 0 -0.0611964 -0.110205 -0.0549278 -0.0336366 0 0 0.864263 0 0 
312 1 312 0.499844 0.459758 0 0 -0.0574917 -0.0789682 -0.043729 -0.0257631 0 0 0.914469 0 0 
313 1 313 0.499841 0.499752 0 0 -0.0620305 -0.0605687 -0.0392885 -0.0403425 0 0 1.28914 0 0 
314 1 314 0.499836 0.539748 0 0 -0.0756927 -0.0466709 -0.0392086 -0.0376601 0 0 0.696971 0 0 
315 1 315 0.499825 0.579747 0 0 -0.092532 -0.0500346 -0.0456838 -0.0673738 0 0 0.785573 0 0 
316 1 316 0.499804 0.619746 0 0 -0.091318 -0.0470069 -0.0443257 -0.0706301 0 0 -0.103205 0 0 
317 1 317 0.499782 0.659745 0 0 -0.0874836 -0.0476018 -0.0432875 -0.0882317 0 0 -0.66848 0 0 
318 1 318 0.499761 0.699744 0 0 -0.0893028 -0.0479403 -0.0439801 -0.0797158 0 0 -1.22827 0 0 
319 1 319 0.499747 0.739743 0 0 -0.0899651 -0.0457333 -0.0434829 -0.0689482 0 0 -1.50366 0 0 
320 1 320 0.499738 0.779742 0 0 -0.0931941 -0.0422872 -0.0434175 -0.0599966 0 0 -1.51639 0 0 
321 1 321 0.499734 0.819744 0 0 -0.0977654 -0.0277905 -0.040232 -0.0426288 0 0 -2.05655 0 0 
322 1 322 0.499733 0.859749 0 0 -0.117939 -0.0192528 -0.0439682 -0.0389044 0 0 -2.11114 0 0 