ITEM: TIMESTEP
0
ITEM: NUMBER OF ATOMS
7127
ITEM: BOX BOUNDS sm sm sm
0 4
0 2
0 0
ITEM: ATOMS id type tag x y z vx 
0 1 0 0 0 0 0 
1 1 1 0 0.04 0 0 
2 1 2 0 0.08 0 0 
3 1 3 0 0.12 0 0 
4 1 4 0 0.16 0 0 
5 1 5 0 0.2 0 0 
6 1 6 0 0.24 0 0 
7 1 7 0 0.28 0 0 
8 1 8 0 0.32 0 0 
9 1 9 0 0.36 0 0 
10 1 10 0 0.4 0 0 
11 1 11 0 0.44 0 0 
12 1 12 0 0.48 0 0 
13 1 13 0 0.52 0 0 
14 1 14 0 0.56 0 0 
15 1 15 0 0.6 0 0 
16 1 16 0 0.64 0 0 
17 1 17 0 0.68 0 0 
18 1 18 0 0.72 0 0 
19 1 19 0 0.76 0 0 
20 1 20 0 0.8 0 0 
21 1 21 0 0.84 0 0 
22 1 22 0 0.88 0 0 
23 1 23 0 0.92 0 0 
24 1 24 0 0.96 0 0 
25 1 25 0 1 0 0 
26 1 26 0.04 0 0 0 
27 1 27 0.0399967 0.0399971 0 0.0823381 
28 1 28 0.0399943 0.0799965 0 0.00691331 
29 1 29 0.0399907 0.119995 0 -0.0712424 
30 1 30 0.0399877 0.159994 0 -0.0678683 
31 1 31 0.0399846 0.199992 0 0.00266445 
32 1 32 0.0399823 0.239989 0 0.148113 
33 1 33 0.0399805 0.279987 0 0.205755 
34 1 34 0.0399783 0.319987 0 0.183436 
35 1 35 0.0399766 0.359988 0 0.210481 
36 1 36 0.039974 0.399992 0 0.229172 
37 1 37 0.0399733 0.439995 0 0.308087 
38 1 38 0.0399712 0.48 0 0.369855 
39 1 39 0.0399704 0.520003 0 0.442103 
40 1 40 0.0399666 0.560008 0 0.399343 
41 1 41 0.0399666 0.600013 0 0.355184 
42 1 42 0.0399623 0.640019 0 0.298851 
43 1 43 0.0399624 0.680026 0 0.096829 
44 1 44 0.0399606 0.720034 0 0.0492156 
45 1 45 0.0399597 0.76004 0 0.0153825 
46 1 46 0.0399572 0.800046 0 -0.0887645 
47 1 47 0.0399585 0.840048 0 0.0324766 
48 1 48 0.0399513 0.880054 0 -0.11376 
49 1 49 0.0399516 0.920058 0 -0.214969 
50 1 50 0.0399438 0.960069 0 -0.18656 
51 1 51 0.039883 1.00012 0 -0.371666 
52 1 52 0.08 0 0 0 
53 1 53 0.0799944 0.0399961 0 0.0653782 
54 1 54 0.079987 0.0799923 0 -0.0353979 
55 1 55 0.0799813 0.119991 0 -0.149267 
56 1 56 0.0799761 0.15999 0 -0.0663731 
57 1 57 0.079972 0.199987 0 0.13425 
58 1 58 0.0799683 0.239985 0 0.42087 
59 1 59 0.0799623 0.279982 0 0.611077 
60 1 60 0.0799573 0.319983 0 0.649815 
61 1 61 0.0799514 0.359985 0 0.666969 
62 1 62 0.0799469 0.399991 0 0.61321 
63 1 63 0.0799429 0.439996 0 0.664649 
64 1 64 0.0799397 0.480004 0 0.711048 
65 1 65 0.0799359 0.520011 0 0.820967 
66 1 66 0.0799316 0.560019 0 0.794994 
67 1 67 0.0799281 0.600028 0 0.677394 
68 1 68 0.0799231 0.640038 0 0.542716 
69 1 69 0.0799175 0.680051 0 0.272922 
70 1 70 0.0799164 0.720062 0 0.197406 
71 1 71 0.0799126 0.760076 0 0.0989141 
72 1 72 0.0799137 0.800086 0 -0.0415076 
73 1 73 0.0799109 0.840099 0 0.0820863 
74 1 74 0.079903 0.880109 0 -0.0953738 
75 1 75 0.0799003 0.920125 0 -0.220373 
76 1 76 0.0798669 0.960157 0 -0.428029 
77 1 77 0.079822 1.00017 0 -0.836487 
78 1 78 0.12 0 0 0 
79 1 79 0.119991 0.0399932 0 0.0571986 
80 1 80 0.119981 0.0799892 0 -0.00489943 
81 1 81 0.119972 0.119986 0 -0.0701433 
82 1 82 0.119966 0.159985 0 0.0853179 
83 1 83 0.119961 0.199984 0 0.369515 
84 1 84 0.119954 0.239983 0 0.830087 
85 1 85 0.119945 0.279983 0 1.21598 
86 1 86 0.119936 0.319985 0 1.32901 
87 1 87 0.119926 0.359989 0 1.27827 
88 1 88 0.119918 0.399995 0 1.10067 
89 1 89 0.119912 0.440002 0 1.08773 
90 1 90 0.119905 0.480012 0 1.10816 
91 1 91 0.119901 0.520021 0 1.1756 
92 1 92 0.119893 0.560032 0 1.12984 
93 1 93 0.119887 0.600045 0 0.95833 
94 1 94 0.119878 0.64006 0 0.738802 
95 1 95 0.119875 0.680075 0 0.47979 
96 1 96 0.11987 0.720093 0 0.392329 
97 1 97 0.119868 0.760109 0 0.273067 
98 1 98 0.119866 0.800127 0 0.137688 
99 1 99 0.119863 0.840144 0 0.15268 
100 1 100 0.119853 0.880165 0 -0.0746991 
101 1 101 0.119838 0.92019 0 -0.214355 
102 1 102 0.119807 0.960214 0 -0.619435 
103 1 103 0.119768 1.00024 0 -1.16941 
104 1 104 0.16 0 0 0 
105 1 105 0.159987 0.0399911 0 0.0837839 
106 1 106 0.159974 0.0799858 0 0.10982 
107 1 107 0.159963 0.119984 0 0.132182 
108 1 108 0.159955 0.159984 0 0.38006 
109 1 109 0.159949 0.199984 0 0.815296 
110 1 110 0.15994 0.239986 0 1.44302 
111 1 111 0.159928 0.279988 0 1.91466 
112 1 112 0.159915 0.319991 0 2.02969 
113 1 113 0.159901 0.359996 0 1.92967 
114 1 114 0.159888 0.400003 0 1.68487 
115 1 115 0.159878 0.440011 0 1.57558 
116 1 116 0.159869 0.480021 0 1.53295 
117 1 117 0.159861 0.520034 0 1.5495 
118 1 118 0.159852 0.560047 0 1.45097 
119 1 119 0.159844 0.600063 0 1.26367 
120 1 120 0.159833 0.640081 0 0.982886 
121 1 121 0.159825 0.680101 0 0.706143 
122 1 122 0.159819 0.72012 0 0.541549 
123 1 123 0.159818 0.760143 0 0.387467 
124 1 124 0.159815 0.800163 0 0.252154 
125 1 125 0.159809 0.840188 0 0.131828 
126 1 126 0.159797 0.880212 0 -0.0863575 
127 1 127 0.159782 0.920238 0 -0.225316 
128 1 128 0.159752 0.960266 0 -0.693503 
129 1 129 0.159717 1.00029 0 -1.23013 
130 1 130 0.2 0 0 0 
131 1 131 0.199981 0.0399887 0 0.194514 
132 1 132 0.199966 0.0799839 0 0.327536 
133 1 133 0.199954 0.119983 0 0.438016 
134 1 134 0.199945 0.159983 0 0.812351 
135 1 135 0.199936 0.199986 0 1.39136 
136 1 136 0.199926 0.23999 0 2.06426 
137 1 137 0.199911 0.279994 0 2.55966 
138 1 138 0.199894 0.319999 0 2.66804 
139 1 139 0.199875 0.360005 0 2.51629 
140 1 140 0.199859 0.400012 0 2.23161 
141 1 141 0.199844 0.440021 0 2.03068 
142 1 142 0.199833 0.480032 0 1.90834 
143 1 143 0.199822 0.520046 0 1.87759 
144 1 144 0.199809 0.560065 0 1.69626 
145 1 145 0.199797 0.600083 0 1.44828 
146 1 146 0.199785 0.640106 0 1.10749 
147 1 147 0.199779 0.680127 0 0.813184 
148 1 148 0.199772 0.720151 0 0.559217 
149 1 149 0.19977 0.760174 0 0.354085 
150 1 150 0.199764 0.800198 0 0.216093 
151 1 151 0.199758 0.840224 0 0.0139293 
152 1 152 0.199745 0.88025 0 -0.128791 
153 1 153 0.199726 0.920278 0 -0.271214 
154 1 154 0.199698 0.960305 0 -0.726559 
155 1 155 0.19967 1.00033 0 -1.15133 
156 1 156 0.24 0 0 0 
157 1 157 0.239976 0.0399892 0 0.428492 
158 1 158 0.239957 0.0799842 0 0.700861 
159 1 159 0.239943 0.119983 0 0.926599 
160 1 160 0.239932 0.159985 0 1.34669 
161 1 161 0.239923 0.199989 0 1.88574 
162 1 162 0.239909 0.239996 0 2.46646 
163 1 163 0.239892 0.280001 0 2.9679 
164 1 164 0.239871 0.320008 0 3.1249 
165 1 165 0.239849 0.360014 0 2.98388 
166 1 166 0.239827 0.400022 0 2.70279 
167 1 167 0.239808 0.440031 0 2.42722 
168 1 168 0.239792 0.480045 0 2.2282 
169 1 169 0.239776 0.520062 0 2.08938 
170 1 170 0.239763 0.560083 0 1.80385 
171 1 171 0.239751 0.600105 0 1.54053 
172 1 172 0.239737 0.640128 0 1.14688 
173 1 173 0.239727 0.680152 0 0.831368 
174 1 174 0.239718 0.720175 0 0.510284 
175 1 175 0.239716 0.7602 0 0.202477 
176 1 176 0.239709 0.800225 0 -0.0406141 
177 1 177 0.239701 0.840252 0 -0.306157 
178 1 178 0.239688 0.880279 0 -0.350364 
179 1 179 0.23967 0.920307 0 -0.424106 
180 1 180 0.239646 0.960334 0 -0.642523 
181 1 181 0.239619 1.00036 0 -0.831212 
182 1 182 0.28 0 0 0 
183 1 183 0.279972 0.0399905 0 0.616279 
184 1 184 0.279949 0.0799848 0 1.04578 
185 1 185 0.279933 0.119984 0 1.39454 
186 1 186 0.279919 0.159987 0 1.79716 
187 1 187 0.279907 0.199993 0 2.27993 
188 1 188 0.279891 0.24 0 2.79186 
189 1 189 0.279871 0.280008 0 3.22221 
190 1 190 0.279847 0.320015 0 3.34313 
191 1 191 0.279819 0.360022 0 3.21034 
192 1 192 0.279795 0.40003 0 2.97384 
193 1 193 0.27977 0.440042 0 2.66368 
194 1 194 0.279752 0.480057 0 2.42649 
195 1 195 0.279733 0.520077 0 2.20901 
196 1 196 0.279716 0.5601 0 1.80881 
197 1 197 0.2797 0.600125 0 1.53328 
198 1 198 0.279686 0.64015 0 1.08096 
199 1 199 0.27968 0.680175 0 0.684595 
200 1 200 0.279672 0.720199 0 0.306795 
201 1 201 0.279666 0.760223 0 -0.0595576 
202 1 202 0.279656 0.800249 0 -0.371172 
203 1 203 0.279649 0.840275 0 -0.620568 
204 1 204 0.279633 0.880302 0 -0.599358 
205 1 205 0.279614 0.920331 0 -0.657815 
206 1 206 0.279591 0.960358 0 -0.635249 
207 1 207 0.279568 1.00038 0 -0.603752 
208 1 208 0.32 0 0 0 
209 1 209 0.319968 0.039992 0 0.771755 
210 1 210 0.319942 0.0799867 0 1.34557 
211 1 211 0.319922 0.119986 0 1.77635 
212 1 212 0.319904 0.15999 0 2.14226 
213 1 213 0.319887 0.199997 0 2.52387 
214 1 214 0.319869 0.240005 0 2.88424 
215 1 215 0.319846 0.280014 0 3.18935 
216 1 216 0.319819 0.320023 0 3.29035 
217 1 217 0.319788 0.360031 0 3.23849 
218 1 218 0.319758 0.400041 0 3.11248 
219 1 219 0.319729 0.440054 0 2.81901 
220 1 220 0.319706 0.480071 0 2.50681 
221 1 221 0.319683 0.520092 0 2.19585 
222 1 222 0.319665 0.560116 0 1.70277 
223 1 223 0.319653 0.600141 0 1.36962 
224 1 224 0.319637 0.640166 0 0.926414 
225 1 225 0.319625 0.68019 0 0.545257 
226 1 226 0.319613 0.720214 0 0.132995 
227 1 227 0.319608 0.760238 0 -0.278738 
228 1 228 0.319597 0.800264 0 -0.661876 
229 1 229 0.319587 0.840292 0 -0.889444 
230 1 230 0.31957 0.88032 0 -0.809176 
231 1 231 0.319555 0.920349 0 -0.79759 
232 1 232 0.319535 0.960376 0 -0.532023 
233 1 233 0.319511 1.0004 0 -0.343582 
234 1 234 0.36 0 0 0 
235 1 235 0.359967 0.0399934 0 0.808072 
236 1 236 0.359935 0.0799883 0 1.48504 
237 1 237 0.359909 0.119987 0 2.0008 
238 1 238 0.359887 0.159991 0 2.31719 
239 1 239 0.359865 0.199999 0 2.52698 
240 1 240 0.359843 0.240009 0 2.70702 
241 1 241 0.359817 0.280019 0 2.95467 
242 1 242 0.359786 0.320028 0 3.13025 
243 1 243 0.359752 0.360039 0 3.20757 
244 1 244 0.35972 0.400049 0 3.16141 
245 1 245 0.359687 0.440064 0 2.90629 
246 1 246 0.359661 0.480082 0 2.55898 
247 1 247 0.359637 0.520104 0 2.16366 
248 1 248 0.359616 0.560128 0 1.64673 
249 1 249 0.359598 0.600155 0 1.25776 
250 1 250 0.359584 0.64018 0 0.785126 
251 1 251 0.359576 0.680204 0 0.417213 
252 1 252 0.359564 0.720229 0 -0.0488284 
253 1 253 0.359553 0.760253 0 -0.483086 
254 1 254 0.359538 0.80028 0 -0.870044 
255 1 255 0.359529 0.840307 0 -1.09727 
256 1 256 0.359511 0.880337 0 -1.0294 
257 1 257 0.359494 0.920367 0 -0.969857 
258 1 258 0.359475 0.960396 0 -0.591454 
259 1 259 0.359454 1.00042 0 -0.369594 
260 1 260 0.4 0 0 0 
261 1 261 0.399964 0.0399946 0 0.712188 
262 1 262 0.39993 0.0799896 0 1.42914 
263 1 263 0.399898 0.119989 0 2.02511 
264 1 264 0.399868 0.159992 0 2.30434 
265 1 265 0.399839 0.2 0 2.4077 
266 1 266 0.399813 0.240009 0 2.48472 
267 1 267 0.399783 0.280021 0 2.66578 
268 1 268 0.39975 0.320032 0 2.85815 
269 1 269 0.399714 0.360044 0 3.05229 
270 1 270 0.399677 0.400057 0 3.1167 
271 1 271 0.399641 0.440073 0 2.9621 
272 1 272 0.399611 0.480092 0 2.65194 
273 1 273 0.399583 0.520115 0 2.17926 
274 1 274 0.399562 0.560139 0 1.6027 
275 1 275 0.399547 0.600164 0 1.15741 
276 1 276 0.39953 0.640189 0 0.668185 
277 1 277 0.399514 0.680212 0 0.292663 
278 1 278 0.399498 0.720237 0 -0.2215 
279 1 279 0.399488 0.760262 0 -0.64239 
280 1 280 0.399471 0.800291 0 -1.00599 
281 1 281 0.399457 0.840321 0 -1.23582 
282 1 282 0.399441 0.880353 0 -1.13255 
283 1 283 0.399429 0.920385 0 -0.952623 
284 1 284 0.399413 0.960415 0 -0.569613 
285 1 285 0.399392 1.00044 0 -0.428713 
286 1 286 0.44 0 0 0 
287 1 287 0.439962 0.0399942 0 0.578615 
288 1 288 0.439922 0.0799896 0 1.28304 
289 1 289 0.439883 0.119989 0 1.90352 
290 1 290 0.439847 0.159992 0 2.11641 
291 1 291 0.439812 0.199999 0 2.13652 
292 1 292 0.439781 0.240008 0 2.15526 
293 1 293 0.439748 0.28002 0 2.33327 
294 1 294 0.439712 0.320031 0 2.61564 
295 1 295 0.439673 0.360044 0 2.95107 
296 1 296 0.439634 0.400059 0 3.13986 
297 1 297 0.439595 0.440077 0 3.06222 
298 1 298 0.439562 0.480098 0 2.73515 
299 1 299 0.439533 0.520121 0 2.2373 
300 1 300 0.439509 0.560146 0 1.66626 
301 1 301 0.439486 0.600173 0 1.13487 
302 1 302 0.439471 0.640199 0 0.609368 
303 1 303 0.43946 0.680224 0 0.228787 
304 1 304 0.439442 0.72025 0 -0.343439 
305 1 305 0.439425 0.760277 0 -0.76865 
306 1 306 0.439405 0.800306 0 -1.1099 
307 1 307 0.439393 0.840338 0 -1.33529 
308 1 308 0.439376 0.880371 0 -1.2004 
309 1 309 0.439362 0.920404 0 -0.980141 
310 1 310 0.439347 0.960437 0 -0.741272 
311 1 311 0.439331 1.00047 0 -0.747745 
312 1 312 0.48 0 0 0 
313 1 313 0.479957 0.0399931 0 0.354705 
314 1 314 0.479914 0.0799887 0 1.00223 
315 1 315 0.479869 0.119988 0 1.66229 
316 1 316 0.479826 0.159989 0 1.8946 
317 1 317 0.479785 0.199995 0 1.90697 
318 1 318 0.479748 0.240004 0 1.91 
319 1 319 0.47971 0.280015 0 2.09924 
320 1 320 0.479672 0.320028 0 2.46309 
321 1 321 0.47963 0.360044 0 2.88841 
322 1 322 0.479588 0.400061 0 3.14473 
323 1 323 0.479545 0.440081 0 3.17006 
324 1 324 0.479508 0.480103 0 2.85957 
325 1 325 0.479475 0.520127 0 2.36427 
326 1 326 0.47945 0.560152 0 1.83553 
327 1 327 0.47943 0.600178 0 1.21422 
328 1 328 0.479412 0.640203 0 0.601906 
329 1 329 0.479389 0.680229 0 0.150528 
330 1 330 0.479368 0.720257 0 -0.501487 
331 1 331 0.479353 0.760286 0 -0.927952 
332 1 332 0.479332 0.800318 0 -1.23063 
333 1 333 0.479316 0.840352 0 -1.4456 
334 1 334 0.479301 0.880388 0 -1.29868 
335 1 335 0.479292 0.920424 0 -1.06127 
336 1 336 0.47928 0.960458 0 -0.93338 
337 1 337 0.479267 1.00049 0 -1.03787 
338 1 338 0.52 0 0 0 
339 1 339 0.519953 0.0399913 0 0.171548 
340 1 340 0.519903 0.0799865 0 0.748056 
341 1 341 0.519852 0.119985 0 1.40553 
342 1 342 0.519804 0.159986 0 1.68062 
343 1 343 0.519756 0.19999 0 1.75022 
344 1 344 0.519715 0.239998 0 1.808 
345 1 345 0.519673 0.28001 0 2.01398 
346 1 346 0.519631 0.320023 0 2.38197 
347 1 347 0.519586 0.36004 0 2.83244 
348 1 348 0.519541 0.400059 0 3.09541 
349 1 349 0.519497 0.440081 0 3.19119 
350 1 350 0.519456 0.480104 0 2.94784 
351 1 351 0.519422 0.520129 0 2.44839 
352 1 352 0.519392 0.560155 0 1.87953 
353 1 353 0.519363 0.600182 0 1.18327 
354 1 354 0.519345 0.64021 0 0.520599 
355 1 355 0.519329 0.68024 0 -0.000356799 
356 1 356 0.519309 0.720269 0 -0.685623 
357 1 357 0.519287 0.760301 0 -1.10682 
358 1 358 0.519263 0.800334 0 -1.37808 
359 1 359 0.51925 0.84037 0 -1.56289 
360 1 360 0.519234 0.880407 0 -1.44964 
361 1 361 0.519222 0.920443 0 -1.2704 
362 1 362 0.519212 0.960479 0 -1.24123 
363 1 363 0.519203 1.00051 0 -1.40216 
364 1 364 0.56 0 0 0 
365 1 365 0.559943 0.0399897 0 0.0578254 
366 1 366 0.55989 0.0799842 0 0.551105 
367 1 367 0.559835 0.119982 0 1.16549 
368 1 368 0.559782 0.159982 0 1.48561 
369 1 369 0.559729 0.199987 0 1.64214 
370 1 370 0.559682 0.239994 0 1.77687 
371 1 371 0.559634 0.280005 0 1.9931 
372 1 372 0.559589 0.32002 0 2.31671 
373 1 373 0.55954 0.360039 0 2.72838 
374 1 374 0.559491 0.40006 0 2.94677 
375 1 375 0.559443 0.440083 0 3.02127 
376 1 376 0.559399 0.480107 0 2.81786 
377 1 377 0.55936 0.520132 0 2.3959 
378 1 378 0.559329 0.560158 0 1.8684 
379 1 379 0.559304 0.600184 0 1.18639 
380 1 380 0.55928 0.640212 0 0.45906 
381 1 381 0.559252 0.680242 0 -0.197144 
382 1 382 0.559227 0.720273 0 -0.894856 
383 1 383 0.559209 0.760308 0 -1.32809 
384 1 384 0.559186 0.800344 0 -1.6011 
385 1 385 0.559168 0.840381 0 -1.74797 
386 1 386 0.559155 0.880421 0 -1.68237 
387 1 387 0.559149 0.920458 0 -1.56466 
388 1 388 0.559141 0.960495 0 -1.59267 
389 1 389 0.559133 1.00053 0 -1.78076 
390 1 390 0.6 0 0 0 
391 1 391 0.599936 0.0399881 0 0.01876 
392 1 392 0.599875 0.0799827 0 0.416 
393 1 393 0.599815 0.119981 0 0.947454 
394 1 394 0.599758 0.159981 0 1.32966 
395 1 395 0.599699 0.199984 0 1.5845 
396 1 396 0.599647 0.239991 0 1.74579 
397 1 397 0.599595 0.280003 0 1.91784 
398 1 398 0.599545 0.320019 0 2.14936 
399 1 399 0.599493 0.360039 0 2.43521 
400 1 400 0.599442 0.40006 0 2.57626 
401 1 401 0.599392 0.440084 0 2.66475 
402 1 402 0.599345 0.480108 0 2.52771 
403 1 403 0.599304 0.520132 0 2.20865 
404 1 404 0.599267 0.560158 0 1.70754 
405 1 405 0.599232 0.600186 0 1.00267 
406 1 406 0.599207 0.640217 0 0.215426 
407 1 407 0.599187 0.680249 0 -0.507262 
408 1 408 0.599164 0.720282 0 -1.1462 
409 1 409 0.599138 0.760319 0 -1.57078 
410 1 410 0.599114 0.800356 0 -1.80346 
411 1 411 0.5991 0.840394 0 -1.89945 
412 1 412 0.599086 0.880433 0 -1.95171 
413 1 413 0.599076 0.92047 0 -1.93096 
414 1 414 0.599068 0.960508 0 -1.98054 
415 1 415 0.599063 1.00054 0 -2.16999 
416 1 416 0.64 0 0 0 
417 1 417 0.639925 0.0399879 0 0.122126 
418 1 418 0.63986 0.0799819 0 0.424554 
419 1 419 0.639796 0.11998 0 0.747731 
420 1 420 0.639733 0.159981 0 1.07827 
421 1 421 0.63967 0.199986 0 1.39956 
422 1 422 0.639613 0.239993 0 1.59134 
423 1 423 0.639554 0.280006 0 1.70385 
424 1 424 0.6395 0.320023 0 1.79409 
425 1 425 0.639443 0.360043 0 1.91215 
426 1 426 0.639387 0.400065 0 1.96289 
427 1 427 0.639334 0.440089 0 2.04158 
428 1 428 0.639284 0.480112 0 1.96878 
429 1 429 0.639238 0.520136 0 1.76522 
430 1 430 0.639201 0.56016 0 1.3214 
431 1 431 0.63917 0.600186 0 0.711914 
432 1 432 0.639137 0.640215 0 -0.0238999 
433 1 433 0.639103 0.680247 0 -0.784278 
434 1 434 0.639074 0.720282 0 -1.38173 
435 1 435 0.639052 0.760321 0 -1.82081 
436 1 436 0.639031 0.80036 0 -2.02619 
437 1 437 0.639012 0.840399 0 -2.0616 
438 1 438 0.639001 0.88044 0 -2.16812 
439 1 439 0.638999 0.920477 0 -2.2043 
440 1 440 0.638992 0.960516 0 -2.31956 
441 1 441 0.638986 1.00055 0 -2.54832 
442 1 442 0.68 0 0 0 
443 1 443 0.679917 0.0399875 0 0.261498 
444 1 444 0.679843 0.0799814 0 0.404987 
445 1 445 0.679773 0.11998 0 0.498504 
446 1 446 0.679707 0.159983 0 0.771259 
447 1 447 0.679639 0.199989 0 1.09541 
448 1 448 0.679575 0.239998 0 1.24885 
449 1 449 0.679511 0.280011 0 1.25995 
450 1 450 0.679451 0.320028 0 1.18708 
451 1 451 0.67939 0.360048 0 1.13589 
452 1 452 0.679333 0.400069 0 1.11783 
453 1 453 0.679277 0.440091 0 1.20248 
454 1 454 0.679227 0.480113 0 1.25623 
455 1 455 0.679181 0.520136 0 1.28581 
456 1 456 0.679136 0.56016 0 0.985746 
457 1 457 0.679093 0.600187 0 0.483911 
458 1 458 0.679058 0.640219 0 -0.215835 
459 1 459 0.679033 0.680253 0 -0.988814 
460 1 460 0.679006 0.720289 0 -1.51085 
461 1 461 0.678975 0.760328 0 -1.91542 
462 1 462 0.678953 0.800366 0 -2.07844 
463 1 463 0.678938 0.840406 0 -2.10744 
464 1 464 0.678926 0.880445 0 -2.29096 
465 1 465 0.678919 0.920483 0 -2.41382 
466 1 466 0.678912 0.960523 0 -2.66308 
467 1 467 0.678909 1.00056 0 -2.96301 
468 1 468 0.72 0 0 0 
469 1 469 0.719908 0.0399876 0 0.434328 
470 1 470 0.719828 0.0799817 0 0.432784 
471 1 471 0.719751 0.119981 0 0.283679 
472 1 472 0.719678 0.159985 0 0.419399 
473 1 473 0.719606 0.199993 0 0.666655 
474 1 474 0.719537 0.240003 0 0.768183 
475 1 475 0.719466 0.280018 0 0.702244 
476 1 476 0.7194 0.320035 0 0.507955 
477 1 477 0.719335 0.360055 0 0.332109 
478 1 478 0.719274 0.400076 0 0.295861 
479 1 479 0.719216 0.440097 0 0.417968 
480 1 480 0.719163 0.480118 0 0.540716 
481 1 481 0.719111 0.520139 0 0.696439 
482 1 482 0.719067 0.560162 0 0.523452 
483 1 483 0.719029 0.600187 0 0.180268 
484 1 484 0.718985 0.640215 0 -0.404083 
485 1 485 0.718943 0.680248 0 -1.11123 
486 1 486 0.718908 0.720285 0 -1.5656 
487 1 487 0.718883 0.760325 0 -1.93392 
488 1 488 0.718862 0.800365 0 -2.04756 
489 1 489 0.718842 0.840406 0 -2.07018 
490 1 490 0.718834 0.880446 0 -2.26544 
491 1 491 0.718835 0.920486 0 -2.46447 
492 1 492 0.718829 0.960526 0 -2.87686 
493 1 493 0.718825 1.00056 0 -3.24472 
494 1 494 0.76 0 0 0 
495 1 495 0.759902 0.039987 0 0.493633 
496 1 496 0.75981 0.0799806 0 0.409913 
497 1 497 0.759727 0.11998 0 0.111455 
498 1 498 0.759649 0.159986 0 0.108396 
499 1 499 0.759572 0.199995 0 0.258307 
500 1 500 0.759496 0.240007 0 0.300928 
501 1 501 0.75942 0.280022 0 0.173663 
502 1 502 0.759347 0.320039 0 -0.100528 
503 1 503 0.759276 0.360059 0 -0.393731 
504 1 504 0.759214 0.400079 0 -0.49837 
505 1 505 0.759154 0.440099 0 -0.370099 
506 1 506 0.759102 0.480119 0 -0.152382 
507 1 507 0.759053 0.52014 0 0.157339 
508 1 508 0.759002 0.560162 0 0.137437 
509 1 509 0.758951 0.600188 0 -0.0490538 
510 1 510 0.758906 0.640219 0 -0.508241 
511 1 511 0.758873 0.680253 0 -1.1087 
512 1 512 0.758838 0.72029 0 -1.5102 
513 1 513 0.758803 0.760328 0 -1.84602 
514 1 514 0.758779 0.800368 0 -1.9037 
515 1 515 0.758763 0.840408 0 -1.94843 
516 1 516 0.758754 0.880448 0 -2.19152 
517 1 517 0.758747 0.920488 0 -2.51165 
518 1 518 0.758743 0.960528 0 -3.05098 
519 1 519 0.758743 1.00057 0 -3.429 
520 1 520 0.8 0 0 0 
521 1 521 0.799894 0.0399873 0 0.426666 
522 1 522 0.799797 0.0799794 0 0.297521 
523 1 523 0.799705 0.119979 0 -0.0237327 
524 1 524 0.799618 0.159984 0 -0.0929208 
525 1 525 0.799535 0.199994 0 -0.00235102 
526 1 526 0.799454 0.240008 0 0.00212843 
527 1 527 0.79937 0.280024 0 -0.177456 
528 1 528 0.799293 0.320042 0 -0.483268 
529 1 529 0.799218 0.360062 0 -0.800108 
530 1 530 0.799153 0.400083 0 -0.904944 
531 1 531 0.799092 0.440103 0 -0.779925 
532 1 532 0.799037 0.480122 0 -0.579485 
533 1 533 0.798982 0.520143 0 -0.300695 
534 1 534 0.798932 0.560165 0 -0.282487 
535 1 535 0.798887 0.600189 0 -0.362379 
536 1 536 0.798834 0.640215 0 -0.716842 
537 1 537 0.798781 0.680247 0 -1.19283 
538 1 538 0.798738 0.720283 0 -1.51807 
539 1 539 0.798709 0.760322 0 -1.79444 
540 1 540 0.798684 0.800362 0 -1.81346 
541 1 541 0.798663 0.840403 0 -1.88546 
542 1 542 0.798657 0.880444 0 -2.12694 
543 1 543 0.798658 0.920485 0 -2.53456 
544 1 544 0.798655 0.960526 0 -3.1726 
545 1 545 0.798654 1.00057 0 -3.54076 
546 1 546 0.84 0 0 0 
547 1 547 0.839889 0.039986 0 0.291209 
548 1 548 0.839781 0.0799772 0 0.197294 
549 1 549 0.83968 0.119976 0 -0.0280651 
550 1 550 0.839587 0.159981 0 -0.134994 
551 1 551 0.839498 0.199991 0 -0.126147 
552 1 552 0.83941 0.240005 0 -0.135846 
553 1 553 0.839322 0.280022 0 -0.274109 
554 1 554 0.839239 0.32004 0 -0.523097 
555 1 555 0.83916 0.36006 0 -0.824931 
556 1 556 0.839092 0.40008 0 -0.974376 
557 1 557 0.839029 0.440101 0 -0.962105 
558 1 558 0.838975 0.480121 0 -0.888368 
559 1 559 0.838923 0.520143 0 -0.724608 
560 1 560 0.838868 0.560165 0 -0.725993 
561 1 561 0.838809 0.600191 0 -0.779542 
562 1 562 0.838756 0.640221 0 -1.05517 
563 1 563 0.838715 0.680252 0 -1.37793 
564 1 564 0.838671 0.720287 0 -1.63081 
565 1 565 0.83863 0.760324 0 -1.83359 
566 1 566 0.838602 0.800362 0 -1.77983 
567 1 567 0.838585 0.840401 0 -1.8534 
568 1 568 0.838575 0.88044 0 -2.09853 
569 1 569 0.838566 0.920481 0 -2.55563 
570 1 570 0.838565 0.960523 0 -3.15844 
571 1 571 0.838568 1.00057 0 -3.43694 
572 1 572 0.88 0 0 0 
573 1 573 0.879881 0.0399851 0 0.00473067 
574 1 574 0.879767 0.0799755 0 -0.0320378 
575 1 575 0.879657 0.119973 0 -0.0407929 
576 1 576 0.879555 0.159977 0 -0.0898389 
577 1 577 0.87946 0.199987 0 -0.123815 
578 1 578 0.879367 0.240001 0 -0.119505 
579 1 579 0.879273 0.280018 0 -0.170178 
580 1 580 0.879186 0.320037 0 -0.326424 
581 1 581 0.879103 0.360057 0 -0.575473 
582 1 582 0.879032 0.400078 0 -0.753579 
583 1 583 0.878967 0.440101 0 -0.87451 
584 1 584 0.878909 0.480122 0 -0.992406 
585 1 585 0.87885 0.520145 0 -1.07296 
586 1 586 0.878795 0.560168 0 -1.21095 
587 1 587 0.878744 0.600192 0 -1.28927 
588 1 588 0.878685 0.640217 0 -1.47607 
589 1 589 0.878623 0.680246 0 -1.63512 
590 1 590 0.878572 0.720279 0 -1.79824 
591 1 591 0.878538 0.760315 0 -1.918 
592 1 592 0.878508 0.800352 0 -1.81825 
593 1 593 0.878485 0.840391 0 -1.88458 
594 1 594 0.878477 0.880431 0 -2.13436 
595 1 595 0.878474 0.920472 0 -2.64957 
596 1 596 0.878473 0.960515 0 -3.18571 
597 1 597 0.878473 1.00056 0 -3.3544 
598 1 598 0.92 0 0 0 
599 1 599 0.919876 0.039984 0 -0.231992 
600 1 600 0.919752 0.0799737 0 -0.207532 
601 1 601 0.919633 0.11997 0 -0.0299105 
602 1 602 0.919524 0.159972 0 -0.0262876 
603 1 603 0.919421 0.199981 0 -0.0797854 
604 1 604 0.919322 0.239995 0 -0.0781063 
605 1 605 0.919225 0.280011 0 -0.0818934 
606 1 606 0.919134 0.32003 0 -0.1304 
607 1 607 0.919048 0.36005 0 -0.2585 
608 1 608 0.918973 0.400071 0 -0.43169 
609 1 609 0.918904 0.440093 0 -0.708556 
610 1 610 0.918844 0.480116 0 -1.06031 
611 1 611 0.918787 0.520141 0 -1.41248 
612 1 612 0.918728 0.560166 0 -1.69017 
613 1 613 0.918662 0.600193 0 -1.81228 
614 1 614 0.918604 0.640222 0 -1.94325 
615 1 615 0.918558 0.680252 0 -1.95657 
616 1 616 0.918508 0.720283 0 -1.97917 
617 1 617 0.918462 0.760315 0 -1.96737 
618 1 618 0.91843 0.800351 0 -1.82948 
619 1 619 0.918411 0.840385 0 -1.91108 
620 1 620 0.918395 0.880423 0 -2.19337 
621 1 621 0.918382 0.920463 0 -2.69888 
622 1 622 0.918378 0.960507 0 -3.06938 
623 1 623 0.918381 1.00055 0 -3.10505 
624 1 624 0.96 0 0 0 
625 1 625 0.959867 0.0399837 0 -0.371277 
626 1 626 0.959737 0.0799728 0 -0.288433 
627 1 627 0.959611 0.119967 0 -0.012879 
628 1 628 0.959491 0.159968 0 -0.0359464 
629 1 629 0.959382 0.199976 0 -0.186021 
630 1 630 0.959278 0.239989 0 -0.235968 
631 1 631 0.959177 0.280004 0 -0.146584 
632 1 632 0.959083 0.320023 0 -0.0413578 
633 1 633 0.958994 0.360042 0 -0.0550591 
634 1 634 0.958914 0.400064 0 -0.222225 
635 1 635 0.958841 0.440088 0 -0.623372 
636 1 636 0.958774 0.480111 0 -1.15887 
637 1 637 0.958707 0.520138 0 -1.73773 
638 1 638 0.958647 0.560164 0 -2.12908 
639 1 639 0.958592 0.60019 0 -2.24067 
640 1 640 0.95853 0.640215 0 -2.23268 
641 1 641 0.958463 0.680243 0 -2.06578 
642 1 642 0.958409 0.720273 0 -1.93 
643 1 643 0.958371 0.760305 0 -1.82714 
644 1 644 0.958339 0.800339 0 -1.71353 
645 1 645 0.958312 0.840374 0 -1.80067 
646 1 646 0.958298 0.880412 0 -2.12482 
647 1 647 0.958289 0.920452 0 -2.64589 
648 1 648 0.958281 0.960496 0 -2.93066 
649 1 649 0.958278 1.00054 0 -2.90956 
650 1 650 1 0 0 0 
651 1 651 0.999861 0.0399825 0 -0.404339 
652 1 652 0.999721 0.0799715 0 -0.299837 
653 1 653 0.999587 0.119965 0 -0.0219394 
654 1 654 0.999462 0.159964 0 -0.0952117 
655 1 655 0.999344 0.19997 0 -0.336118 
656 1 656 0.999233 0.239981 0 -0.495076 
657 1 657 0.99913 0.279995 0 -0.446265 
658 1 658 0.999031 0.320012 0 -0.297423 
659 1 659 0.998939 0.36003 0 -0.189881 
660 1 660 0.998856 0.40005 0 -0.270275 
661 1 661 0.998777 0.440072 0 -0.716099 
662 1 662 0.998705 0.480097 0 -1.3523 
663 1 663 0.998639 0.520125 0 -2.01274 
664 1 664 0.998573 0.560153 0 -2.39336 
665 1 665 0.998503 0.600184 0 -2.46922 
666 1 666 0.998444 0.640215 0 -2.32628 
667 1 667 0.998396 0.680246 0 -1.99095 
668 1 668 0.998347 0.720275 0 -1.70109 
669 1 669 0.998298 0.760306 0 -1.52445 
670 1 670 0.998264 0.800338 0 -1.4514 
671 1 671 0.998241 0.840369 0 -1.60029 
672 1 672 0.998217 0.880405 0 -2.09516 
673 1 673 0.998194 0.920445 0 -2.65195 
674 1 674 0.998182 0.960489 0 -2.81886 
675 1 675 0.998181 1.00054 0 -2.75334 
676 1 676 1.04 0 0 0 
677 1 677 1.03985 0.0399826 0 -0.214123 
678 1 678 1.03971 0.0799705 0 -0.129394 
679 1 679 1.03957 0.119962 0 -0.00722783 
680 1 680 1.03943 0.15996 0 -0.234171 
681 1 681 1.0393 0.199963 0 -0.623528 
682 1 682 1.03919 0.239972 0 -0.930272 
683 1 683 1.03908 0.279984 0 -0.945801 
684 1 684 1.03898 0.32 0 -0.758969 
685 1 685 1.03889 0.360017 0 -0.56588 
686 1 686 1.0388 0.400037 0 -0.575268 
687 1 687 1.03871 0.440059 0 -0.953157 
688 1 688 1.03863 0.480083 0 -1.54066 
689 1 689 1.03855 0.520111 0 -2.2057 
690 1 690 1.03849 0.560141 0 -2.54554 
691 1 691 1.03843 0.600171 0 -2.52086 
692 1 692 1.03837 0.6402 0 -2.18532 
693 1 693 1.0383 0.68023 0 -1.71834 
694 1 694 1.03825 0.720262 0 -1.30522 
695 1 695 1.03821 0.760294 0 -1.07358 
696 1 696 1.03817 0.800327 0 -1.11842 
697 1 697 1.03814 0.84036 0 -1.39476 
698 1 698 1.03812 0.880397 0 -2.04407 
699 1 699 1.0381 0.920436 0 -2.5738 
700 1 700 1.03808 0.960481 0 -2.65201 
701 1 701 1.03807 1.00053 0 -2.60073 
702 1 702 1.08 0 0 0 
703 1 703 1.07985 0.0399816 0 0.0750867 
704 1 704 1.07969 0.0799687 0 0.113736 
705 1 705 1.07954 0.119958 0 0.0184562 
706 1 706 1.0794 0.159954 0 -0.350152 
707 1 707 1.07927 0.199954 0 -0.871903 
708 1 708 1.07915 0.239959 0 -1.37098 
709 1 709 1.07903 0.279969 0 -1.51626 
710 1 710 1.07893 0.319982 0 -1.32512 
711 1 711 1.07883 0.359997 0 -1.03806 
712 1 712 1.07874 0.400014 0 -0.948964 
713 1 713 1.07865 0.440034 0 -1.25991 
714 1 714 1.07856 0.480059 0 -1.77753 
715 1 715 1.07848 0.520088 0 -2.31333 
716 1 716 1.07841 0.560119 0 -2.50277 
717 1 717 1.07834 0.600155 0 -2.40118 
718 1 718 1.07828 0.640192 0 -1.92868 
719 1 719 1.07823 0.680227 0 -1.36824 
720 1 720 1.07818 0.720261 0 -0.888216 
721 1 721 1.07813 0.760293 0 -0.652217 
722 1 722 1.0781 0.800325 0 -0.824717 
723 1 723 1.07807 0.840357 0 -1.22458 
724 1 724 1.07803 0.880393 0 -2.03113 
725 1 725 1.078 0.920434 0 -2.54525 
726 1 726 1.07798 0.960478 0 -2.57622 
727 1 727 1.07797 1.00053 0 -2.57225 
728 1 728 1.12 0 0 0 
729 1 729 1.11984 0.0399809 0 0.304106 
730 1 730 1.11968 0.079966 0 0.313492 
731 1 731 1.11953 0.119953 0 0.0507045 
732 1 732 1.11938 0.159946 0 -0.402861 
733 1 733 1.11923 0.199942 0 -0.983928 
734 1 734 1.1191 0.239945 0 -1.61924 
735 1 735 1.11899 0.279952 0 -1.92544 
736 1 736 1.11888 0.319962 0 -1.83055 
737 1 737 1.11878 0.359975 0 -1.56255 
738 1 738 1.11868 0.399992 0 -1.41118 
739 1 739 1.11858 0.440012 0 -1.56916 
740 1 740 1.11849 0.480036 0 -1.92834 
741 1 741 1.1184 0.520065 0 -2.34474 
742 1 742 1.11832 0.560098 0 -2.44914 
743 1 743 1.11826 0.600133 0 -2.31201 
744 1 744 1.1182 0.640167 0 -1.74971 
745 1 745 1.11813 0.680203 0 -1.14012 
746 1 746 1.11808 0.72024 0 -0.595084 
747 1 747 1.11803 0.760276 0 -0.355585 
748 1 748 1.118 0.800312 0 -0.697206 
749 1 749 1.11796 0.840349 0 -1.22137 
750 1 750 1.11792 0.880389 0 -2.1078 
751 1 751 1.1179 0.920431 0 -2.57451 
752 1 752 1.11787 0.960477 0 -2.53308 
753 1 753 1.11786 1.00053 0 -2.5408 
754 1 754 1.16 0 0 0 
755 1 755 1.15983 0.0399793 0 0.485594 
756 1 756 1.15967 0.0799619 0 0.444054 
757 1 757 1.15951 0.119947 0 0.0283011 
758 1 758 1.15935 0.159937 0 -0.478268 
759 1 759 1.1592 0.199929 0 -1.02803 
760 1 760 1.15906 0.239928 0 -1.66934 
761 1 761 1.15894 0.279931 0 -2.09226 
762 1 762 1.15883 0.319939 0 -2.09247 
763 1 763 1.15872 0.359949 0 -1.85248 
764 1 764 1.15862 0.399963 0 -1.69569 
765 1 765 1.15851 0.439981 0 -1.78854 
766 1 766 1.15841 0.480005 0 -2.08342 
767 1 767 1.15833 0.520034 0 -2.42042 
768 1 768 1.15825 0.560068 0 -2.42857 
769 1 769 1.15817 0.600108 0 -2.28318 
770 1 770 1.1581 0.640151 0 -1.71403 
771 1 771 1.15806 0.680192 0 -1.11098 
772 1 772 1.15801 0.720232 0 -0.556096 
773 1 773 1.15795 0.76027 0 -0.310808 
774 1 774 1.15791 0.800307 0 -0.737685 
775 1 775 1.15787 0.840346 0 -1.3257 
776 1 776 1.15783 0.880387 0 -2.23999 
777 1 777 1.15779 0.920434 0 -2.64039 
778 1 778 1.15776 0.960481 0 -2.47021 
779 1 779 1.15775 1.00053 0 -2.42477 
780 1 780 1.2 0 0 0 
781 1 781 1.19982 0.0399778 0 0.471374 
782 1 782 1.19966 0.079957 0 0.383322 