ITEM: TIMESTEP
0
ITEM: NUMBER OF ATOMS
6875
ITEM: BOX BOUNDS sm sm sm
0 4
0 2
0 0
ITEM: ATOMS id type tag x y z damage s11 s22 s33 s12 s13 s23 vx T ienergy 
1 1 1 0.0199965 0.0199987 0 0 -0.0460818 -0.0408488 -0.0278508 -0.0156134 0 0 -0.141344 0 0 
2 1 2 0.0199934 0.0599962 0 0 -0.080251 -0.0440321 -0.0398176 -0.0170938 0 0 -0.115349 0 0 
3 1 3 0.019993 0.099996 0 0 -0.0876934 -0.0444808 -0.0423499 -0.0187435 0 0 0.0108387 0 0 
4 1 4 0.0199947 0.139995 0 0 -0.0809271 -0.0385791 -0.0382902 -0.0176407 0 0 0.355457 0 0 
5 1 5 0.0199947 0.179995 0 0 -0.0747362 -0.0405956 -0.0369501 -0.020809 0 0 0.11362 0 0 
6 1 6 0.0199944 0.219994 0 0 -0.0829689 -0.0434167 -0.0404932 -0.0276233 0 0 0.212551 0 0 
7 1 7 0.0199935 0.259994 0 0 -0.089049 -0.0444121 -0.0427608 -0.0259043 0 0 0.17427 0 0 
8 1 8 0.0199929 0.299993 0 0 -0.102243 -0.0477955 -0.0480733 -0.0325929 0 0 0.121334 0 0 
9 1 9 0.0199907 0.339994 0 0 -0.124559 -0.056524 -0.0580275 -0.0279087 0 0 -0.16786 0 0 
10 1 10 0.0199899 0.379994 0 0 -0.142208 -0.0661545 -0.0667748 -0.0288778 0 0 -0.322458 0 0 
11 1 11 0.0199878 0.419995 0 0 -0.159564 -0.0688079 -0.0731928 -0.025336 0 0 -0.373896 0 0 
12 1 12 0.0199863 0.459996 0 0 -0.176716 -0.0776464 -0.0815325 -0.0211527 0 0 -0.614559 0 0 
13 1 13 0.0199837 0.499998 0 0 -0.182026 -0.075809 -0.0826469 -0.0135056 0 0 -0.832253 0 0 
14 1 14 0.0199805 0.539998 0 0 -0.19552 -0.0852638 -0.0900118 -0.0109416 0 0 -0.910208 0 0 
15 1 15 0.0199745 0.58 0 0 -0.191816 -0.0874876 -0.0895385 0.000390639 0 0 -1.23684 0 0 
16 1 16 0.0199703 0.619999 0 0 -0.180184 -0.0904422 -0.0867552 -0.00552501 0 0 -1.5121 0 0 
17 1 17 0.0199673 0.659998 0 0 -0.169932 -0.0854323 -0.0818596 -0.00577787 0 0 -1.66212 0 0 
18 1 18 0.019971 0.699996 0 0 -0.154732 -0.0825174 -0.0760483 -0.0121316 0 0 -1.68901 0 0 
19 1 19 0.0199745 0.739996 0 0 -0.143035 -0.0648104 -0.0666156 -0.0166658 0 0 -1.14784 0 0 
20 1 20 0.0199809 0.779996 0 0 -0.126878 -0.0575397 -0.0591013 -0.00956737 0 0 -1.04777 0 0 
21 1 21 0.0199847 0.819999 0 0 -0.100474 -0.0273922 -0.0409659 -0.00757445 0 0 -0.223207 0 0 
22 1 22 0.0199914 0.859999 0 0 -0.0690093 -0.0330583 -0.0326958 0.0120966 0 0 -0.482616 0 0 
23 1 23 0.0199947 0.900002 0 0 -0.0273299 0.00935326 -0.00574384 0.00220996 0 0 0.58211 0 0 
24 1 24 0.0199991 0.940001 0 0 -0.00825097 -0.0416227 -0.0159738 0.0215343 0 0 -0.784525 0 0 
25 1 25 0.0200037 0.979999 0 0 0.105156 0.0360627 0.0352678 -0.0222597 0 0 -0.0497213 0 0 
26 1 26 0.0599947 0.019997 0 0 -0.0488963 -0.0637508 -0.0360924 -0.0254698 0 0 -0.092169 0 0 
27 1 27 0.0599889 0.0599916 0 0 -0.0723372 -0.0508326 -0.0394648 -0.0107749 0 0 0.165172 0 0 
28 1 28 0.0599851 0.0999905 0 0 -0.0838056 -0.0451498 -0.0413169 -0.00653013 0 0 -0.000166402 0 0 
29 1 29 0.0599858 0.139989 0 0 -0.0890913 -0.0498646 -0.0445211 -0.00285027 0 0 0.447307 0 0 
30 1 30 0.0599862 0.179988 0 0 -0.0894933 -0.0571474 -0.0469898 -0.0083237 0 0 0.275207 0 0 
31 1 31 0.0599865 0.219984 0 0 -0.0874675 -0.0584562 -0.0467612 -0.0207352 0 0 0.682204 0 0 
32 1 32 0.059984 0.259983 0 0 -0.094186 -0.0525893 -0.0470351 -0.020017 0 0 0.571275 0 0 
33 1 33 0.0599818 0.299981 0 0 -0.11354 -0.060267 -0.0556998 -0.0346978 0 0 0.714653 0 0 
34 1 34 0.0599768 0.339982 0 0 -0.128528 -0.0553019 -0.0589144 -0.0310322 0 0 0.636604 0 0 
35 1 35 0.0599745 0.379981 0 0 -0.150088 -0.0731592 -0.0715551 -0.0332209 0 0 0.466967 0 0 
36 1 36 0.0599701 0.419983 0 0 -0.161969 -0.0578811 -0.0704636 -0.0357669 0 0 0.595446 0 0 
37 1 37 0.0599682 0.459985 0 0 -0.189995 -0.0800476 -0.0865692 -0.02884 0 0 0.292444 0 0 
38 1 38 0.0599668 0.499988 0 0 -0.194435 -0.0590894 -0.0812693 -0.0251774 0 0 0.249601 0 0 
39 1 39 0.0599693 0.539992 0 0 -0.206271 -0.0838813 -0.0930208 -0.0182771 0 0 0.209141 0 0 
40 1 40 0.0599756 0.579994 0 0 -0.189615 -0.071241 -0.0836209 -0.00414875 0 0 0.308847 0 0 
41 1 41 0.0599862 0.619995 0 0 -0.182771 -0.101139 -0.0910185 -0.0024718 0 0 0.601095 0 0 
42 1 42 0.0599911 0.659993 0 0 -0.157348 -0.0801644 -0.076132 -0.00657814 0 0 1.2213 0 0 
43 1 43 0.0599928 0.699991 0 0 -0.155718 -0.102183 -0.0826737 -0.00120134 0 0 0.730957 0 0 
44 1 44 0.0599894 0.739989 0 0 -0.129447 -0.0481508 -0.056915 -0.0199978 0 0 1.25308 0 0 
45 1 45 0.0599861 0.77999 0 0 -0.150346 -0.0773186 -0.0729727 0.000602991 0 0 0.201375 0 0 
46 1 46 0.0599863 0.819993 0 0 -0.096088 0.000888124 -0.0304929 -0.0148547 0 0 0.743088 0 0 
47 1 47 0.059989 0.859998 0 0 -0.107618 -0.052281 -0.051243 0.0145395 0 0 -0.186473 0 0 
48 1 48 0.0599969 0.899998 0 0 -0.0118161 0.0133837 0.000523103 -0.0128004 0 0 0.875639 0 0 
49 1 49 0.0600044 0.939998 0 0 0.00210253 -0.0354685 -0.0106799 0.0153513 0 0 -0.165214 0 0 
50 1 50 0.0600156 0.979991 0 0 0.0648751 0.000604417 0.0209815 -0.00883308 0 0 0.415482 0 0 
51 1 51 0.0999898 0.0199968 0 0 -0.0462968 -0.0624507 -0.0348552 -0.0358684 0 0 -0.193187 0 0 
52 1 52 0.0999775 0.0599922 0 0 -0.0661532 -0.0486083 -0.0367756 -0.0115884 0 0 0.189484 0 0 
53 1 53 0.0999726 0.0999898 0 0 -0.0855234 -0.0524302 -0.044204 -0.00415786 0 0 0.0990594 0 0 
54 1 54 0.0999737 0.139987 0 0 -0.096574 -0.0647111 -0.0516845 0.00270213 0 0 0.503654 0 0 
55 1 55 0.0999751 0.179984 0 0 -0.0946798 -0.0679197 -0.0521101 -0.00161395 0 0 0.389043 0 0 
56 1 56 0.0999748 0.219979 0 0 -0.0998753 -0.0794348 -0.0574699 -0.0145995 0 0 0.633992 0 0 
57 1 57 0.0999709 0.259975 0 0 -0.107248 -0.0722551 -0.0575337 -0.0219383 0 0 0.569345 0 0 
58 1 58 0.0999658 0.299972 0 0 -0.122578 -0.0779241 -0.0642662 -0.0346107 0 0 0.549115 0 0 
59 1 59 0.0999586 0.33997 0 0 -0.127205 -0.0630307 -0.060974 -0.0376955 0 0 0.468405 0 0 
60 1 60 0.0999534 0.379969 0 0 -0.146594 -0.0742989 -0.070804 -0.0368551 0 0 0.110801 0 0 
61 1 61 0.0999459 0.41997 0 0 -0.152919 -0.0534907 -0.0661561 -0.0485156 0 0 0.0986051 0 0 
62 1 62 0.0999386 0.459973 0 0 -0.17831 -0.0715803 -0.0801062 -0.0355271 0 0 -0.753999 0 0 
63 1 63 0.0999327 0.499978 0 0 -0.174992 -0.0385566 -0.0684483 -0.0391324 0 0 -1.00502 0 0 
64 1 64 0.0999279 0.539983 0 0 -0.190866 -0.0671622 -0.0827149 -0.0201868 0 0 -1.45637 0 0 
65 1 65 0.0999262 0.579987 0 0 -0.166718 -0.0508091 -0.0697205 -0.0105253 0 0 -1.47832 0 0 
66 1 66 0.0999271 0.619989 0 0 -0.161293 -0.0769597 -0.0763708 0.000680469 0 0 -1.78696 0 0 
67 1 67 0.0999302 0.659988 0 0 -0.133336 -0.0702103 -0.0652371 -0.00593652 0 0 -1.76357 0 0 
68 1 68 0.0999358 0.699986 0 0 -0.136709 -0.0846955 -0.0709663 0.00340713 0 0 -2.15917 0 0 
69 1 69 0.0999413 0.739985 0 0 -0.121499 -0.0525546 -0.0557802 -0.0168656 0 0 -1.30781 0 0 
70 1 70 0.0999458 0.779985 0 0 -0.128281 -0.0683028 -0.0630066 0.00340843 0 0 -1.42453 0 0 
71 1 71 0.0999552 0.819986 0 0 -0.105566 -0.0248535 -0.041788 -0.00822293 0 0 -0.512312 0 0 
72 1 72 0.0999672 0.859988 0 0 -0.0911088 -0.0461551 -0.0439897 0.00751887 0 0 -0.5313 0 0 
73 1 73 0.0999862 0.899987 0 0 -0.0519492 -0.0294293 -0.0260635 0.0109063 0 0 -0.0640216 0 0 
74 1 74 0.100005 0.939984 0 0 0.00654237 -0.0246521 -0.00578942 0.00208866 0 0 0.166289 0 0 
75 1 75 0.100022 0.97998 0 0 0.0264914 -0.0135769 0.00414668 0.00537102 0 0 0.0682831 0 0 
76 1 76 0.139989 0.0199973 0 0 -0.0419451 -0.0560174 -0.0313953 -0.0470381 0 0 -0.0255145 0 0 
77 1 77 0.139974 0.0599924 0 0 -0.0696467 -0.0539478 -0.0396065 -0.0235378 0 0 0.428512 0 0 
78 1 78 0.139966 0.0999888 0 0 -0.0912396 -0.0650173 -0.0500818 -0.0143853 0 0 0.186441 0 0 
79 1 79 0.139964 0.139985 0 0 -0.0963976 -0.0685186 -0.0528547 3.07282e-05 0 0 0.425146 0 0 
80 1 80 0.139966 0.179981 0 0 -0.102877 -0.0793018 -0.0583895 -0.00333153 0 0 0.417172 0 0 
81 1 81 0.139966 0.219975 0 0 -0.10568 -0.090515 -0.0628844 -0.0134703 0 0 0.533128 0 0 
82 1 82 0.139962 0.259969 0 0 -0.107669 -0.0909038 -0.0636484 -0.0249014 0 0 0.779239 0 0 
83 1 83 0.139955 0.299963 0 0 -0.117623 -0.0863707 -0.0653884 -0.0345339 0 0 0.96591 0 0 
84 1 84 0.139946 0.339959 0 0 -0.132359 -0.0850851 -0.0697037 -0.0406409 0 0 1.18012 0 0 
85 1 85 0.139938 0.379956 0 0 -0.151674 -0.0782855 -0.0737138 -0.0420838 0 0 1.04594 0 0 
86 1 86 0.139928 0.419956 0 0 -0.16748 -0.0693103 -0.0759016 -0.054075 0 0 1.08145 0 0 
87 1 87 0.13992 0.459958 0 0 -0.187971 -0.0692473 -0.0824554 -0.0422415 0 0 0.612786 0 0 
88 1 88 0.139915 0.499963 0 0 -0.193515 -0.0508332 -0.0783275 -0.0426214 0 0 0.485617 0 0 
89 1 89 0.139916 0.539969 0 0 -0.195078 -0.0569519 -0.08079 -0.022688 0 0 0.172329 0 0 
90 1 90 0.139928 0.579975 0 0 -0.187397 -0.0590551 -0.0789995 -0.00860201 0 0 0.397264 0 0 
91 1 91 0.139944 0.619978 0 0 -0.172181 -0.0624376 -0.0752055 -0.00236241 0 0 0.9065 0 0 
92 1 92 0.139955 0.65998 0 0 -0.162231 -0.0784013 -0.0771342 -0.00451078 0 0 1.1135 0 0 
93 1 93 0.13996 0.699979 0 0 -0.149617 -0.0780274 -0.0729706 -0.0104757 0 0 0.865854 0 0 
94 1 94 0.139956 0.739979 0 0 -0.138881 -0.0641748 -0.0650834 -0.0200787 0 0 0.942267 0 0 
95 1 95 0.139954 0.779978 0 0 -0.135948 -0.0802496 -0.0693016 -0.00648242 0 0 0.350602 0 0 
96 1 96 0.139957 0.819977 0 0 -0.101598 -0.0419051 -0.0459852 -0.00593355 0 0 0.834818 0 0 
97 1 97 0.139966 0.859976 0 0 -0.0975429 -0.067599 -0.0529237 0.0148314 0 0 0.446106 0 0 
98 1 98 0.139985 0.899974 0 0 -0.0527613 -0.0269387 -0.0255248 0.0198565 0 0 0.800355 0 0 
99 1 99 0.140008 0.939971 0 0 -0.0424403 -0.0550918 -0.0312543 0.0295233 0 0 0.638705 0 0 
100 1 100 0.140025 0.979969 0 0 -0.00272888 0.00869895 0.00191686 0.00297329 0 0 0.430877 0 0 
101 1 101 0.179985 0.019997 0 0 -0.0378004 -0.0587417 -0.0309286 -0.0585716 0 0 -0.198253 0 0 
102 1 102 0.179964 0.0599906 0 0 -0.063928 -0.0634603 -0.0408204 -0.0375596 0 0 0.222965 0 0 
103 1 103 0.179954 0.0999862 0 0 -0.0850705 -0.0665264 -0.0485894 -0.0210382 0 0 0.209706 0 0 
104 1 104 0.179953 0.139982 0 0 -0.099768 -0.0752843 -0.0561073 -0.00689749 0 0 0.321789 0 0 
105 1 105 0.179954 0.179977 0 0 -0.11028 -0.0871213 -0.063272 -0.0100765 0 0 0.337518 0 0 
106 1 106 0.179954 0.21997 0 0 -0.113173 -0.0980464 -0.0676997 -0.0169811 0 0 0.46109 0 0 
107 1 107 0.179949 0.259963 0 0 -0.116979 -0.104089 -0.07086 -0.0308138 0 0 0.755893 0 0 
108 1 108 0.17994 0.299955 0 0 -0.123463 -0.103214 -0.0726642 -0.0397155 0 0 0.904188 0 0 
109 1 109 0.179929 0.339949 0 0 -0.1283 -0.0955561 -0.0717625 -0.0454475 0 0 1.02956 0 0 
110 1 110 0.179918 0.379944 0 0 -0.141359 -0.0865444 -0.0730558 -0.0507931 0 0 0.998908 0 0 
111 1 111 0.179905 0.419943 0 0 -0.143903 -0.0649468 -0.0669388 -0.0583654 0 0 0.664161 0 0 
112 1 112 0.179892 0.459944 0 0 -0.149695 -0.0567897 -0.0661803 -0.055649 0 0 0.0150077 0 0 
113 1 113 0.179882 0.499948 0 0 -0.155955 -0.0390223 -0.0624913 -0.053442 0 0 -0.621966 0 0 
114 1 114 0.179877 0.539954 0 0 -0.155567 -0.0402806 -0.0627681 -0.0317881 0 0 -1.14443 0 0 
115 1 115 0.179878 0.57996 0 0 -0.151426 -0.0306567 -0.0583545 -0.0210176 0 0 -1.14426 0 0 
116 1 116 0.179884 0.619965 0 0 -0.14912 -0.0470706 -0.0628817 -0.00462968 0 0 -1.51144 0 0 
117 1 117 0.179893 0.659968 0 0 -0.12367 -0.0359159 -0.051141 -0.0107069 0 0 -1.45482 0 0 
118 1 118 0.179902 0.69997 0 0 -0.134434 -0.0717495 -0.0660885 -0.0143507 0 0 -1.62709 0 0 
119 1 119 0.179909 0.739969 0 0 -0.111745 -0.0446056 -0.0501051 -0.0265606 0 0 -1.0539 0 0 
120 1 120 0.179915 0.779968 0 0 -0.124439 -0.0829582 -0.0664783 -0.00902642 0 0 -1.07926 0 0 
121 1 121 0.179928 0.819965 0 0 -0.100783 -0.0494955 -0.0481572 -0.00538113 0 0 -0.118382 0 0 
122 1 122 0.179947 0.859964 0 0 -0.0901167 -0.0686266 -0.0508679 0.0188345 0 0 0.220247 0 0 
123 1 123 0.179973 0.899961 0 0 -0.0606889 -0.036706 -0.0311972 0.0307752 0 0 0.759206 0 0 
124 1 124 0.18 0.939959 0 0 -0.0545007 -0.0354795 -0.028841 0.0273526 0 0 0.657217 0 0 
125 1 125 0.180021 0.979959 0 0 -0.0259288 -0.0082509 -0.0109546 0.00994823 0 0 0.354379 0 0 
126 1 126 0.219986 0.0199956 0 0 -0.045696 -0.0774341 -0.0394535 -0.0657768 0 0 0.0308505 0 0 
127 1 127 0.219963 0.0599872 0 0 -0.0666053 -0.076811 -0.0459556 -0.0484234 0 0 0.67869 0 0 
128 1 128 0.219948 0.099981 0 0 -0.083749 -0.0747784 -0.050806 -0.0299445 0 0 0.478742 0 0 
129 1 129 0.219944 0.139975 0 0 -0.10275 -0.0871529 -0.0608685 -0.0174233 0 0 0.38308 0 0 
130 1 130 0.219944 0.179969 0 0 -0.109783 -0.0878575 -0.0633479 -0.0160688 0 0 0.465029 0 0 
131 1 131 0.219945 0.219962 0 0 -0.116597 -0.104324 -0.0708095 -0.021864 0 0 0.613402 0 0 
132 1 132 0.21994 0.259954 0 0 -0.114834 -0.102488 -0.0696537 -0.037421 0 0 1.01134 0 0 
133 1 133 0.219931 0.299945 0 0 -0.125238 -0.119739 -0.0785307 -0.0459277 0 0 1.49194 0 0 
134 1 134 0.219919 0.339937 0 0 -0.124385 -0.0991945 -0.0716731 -0.0530979 0 0 1.89428 0 0 
135 1 135 0.219905 0.379931 0 0 -0.144757 -0.102446 -0.0792504 -0.0615843 0 0 2.11114 0 0 
136 1 136 0.21989 0.419927 0 0 -0.155726 -0.0814492 -0.0760295 -0.0631091 0 0 1.77979 0 0 
137 1 137 0.219877 0.459927 0 0 -0.169988 -0.0751321 -0.0785795 -0.0628017 0 0 1.40143 0 0 
138 1 138 0.219867 0.499929 0 0 -0.179367 -0.0639116 -0.0779902 -0.0582656 0 0 1.0295 0 0 
139 1 139 0.219868 0.539933 0 0 -0.180798 -0.0580977 -0.076581 -0.0315647 0 0 0.451044 0 0 
140 1 140 0.219881 0.579939 0 0 -0.17528 -0.0399854 -0.0690012 -0.0308306 0 0 1.04633 0 0 
141 1 141 0.219899 0.619945 0 0 -0.189782 -0.0603241 -0.0801789 -0.00925197 0 0 0.940759 0 0 
142 1 142 0.219916 0.65995 0 0 -0.173362 -0.0444287 -0.0698095 -0.0202962 0 0 1.48529 0 0 
143 1 143 0.219923 0.699954 0 0 -0.17305 -0.0744083 -0.0793267 -0.0269894 0 0 1.41696 0 0 
144 1 144 0.219924 0.739955 0 0 -0.148213 -0.0682472 -0.0693821 -0.0300762 0 0 1.41119 0 0 
145 1 145 0.219925 0.779954 0 0 -0.131257 -0.0728509 -0.065419 -0.0209158 0 0 1.31074 0 0 
146 1 146 0.21993 0.819952 0 0 -0.121588 -0.0726943 -0.0622647 -0.00731492 0 0 1.36837 0 0 
147 1 147 0.219946 0.859949 0 0 -0.102997 -0.0678908 -0.054763 0.0181565 0 0 1.15648 0 0 
148 1 148 0.21997 0.899947 0 0 -0.0828468 -0.0441021 -0.04067 0.0245253 0 0 1.49826 0 0 
149 1 149 0.219996 0.939946 0 0 -0.0772275 -0.0431392 -0.0385816 0.027433 0 0 1.2485 0 0 
150 1 150 0.220017 0.979948 0 0 -0.0519063 0.00436368 -0.0152375 0.00750821 0 0 0.915833 0 0 
151 1 151 0.259983 0.0199942 0 0 -0.0472079 -0.0957103 -0.0458013 -0.06984 0 0 -0.0214458 0 0 
152 1 152 0.259955 0.0599831 0 0 -0.0587847 -0.0910322 -0.048007 -0.0581137 0 0 0.504773 0 0 
153 1 153 0.259939 0.0999739 0 0 -0.0802361 -0.0907483 -0.0547971 -0.0392442 0 0 0.481094 0 0 
154 1 154 0.259933 0.139966 0 0 -0.100024 -0.0923942 -0.0616712 -0.0267434 0 0 0.617279 0 0 
155 1 155 0.259932 0.179959 0 0 -0.112971 -0.0933492 -0.0661299 -0.0210683 0 0 0.633947 0 0 
156 1 156 0.259932 0.219952 0 0 -0.1261 -0.110894 -0.0759633 -0.0264142 0 0 0.840611 0 0 
157 1 157 0.259927 0.259944 0 0 -0.125276 -0.109755 -0.0753315 -0.0414607 0 0 1.33096 0 0 
158 1 158 0.259918 0.299934 0 0 -0.130993 -0.128414 -0.0831558 -0.0501705 0 0 1.90302 0 0 
159 1 159 0.259904 0.339925 0 0 -0.126435 -0.110255 -0.0758724 -0.0594662 0 0 2.2177 0 0 
160 1 160 0.259888 0.379917 0 0 -0.134014 -0.105697 -0.0768453 -0.0707932 0 0 2.27201 0 0 
161 1 161 0.259869 0.419912 0 0 -0.135148 -0.0873489 -0.0713235 -0.0713352 0 0 1.60892 0 0 
162 1 162 0.259853 0.45991 0 0 -0.130469 -0.0655203 -0.0628255 -0.0719448 0 0 0.753678 0 0 
163 1 163 0.259838 0.49991 0 0 -0.128934 -0.0563062 -0.05938 -0.0680157 0 0 0.0399841 0 0 
164 1 164 0.259832 0.539912 0 0 -0.137221 -0.0507361 -0.0602461 -0.0426317 0 0 -0.919572 0 0 
165 1 165 0.259832 0.579916 0 0 -0.140728 -0.0302687 -0.0548051 -0.0446993 0 0 -0.77689 0 0 
166 1 166 0.259837 0.619921 0 0 -0.152263 -0.0440293 -0.0629163 -0.0212204 0 0 -1.57066 0 0 
167 1 167 0.25985 0.659927 0 0 -0.140204 -0.0183485 -0.0508109 -0.0292737 0 0 -1.28163 0 0 
168 1 168 0.259862 0.699932 0 0 -0.146087 -0.0492141 -0.0625941 -0.0356108 0 0 -1.12542 0 0 
169 1 169 0.259874 0.739935 0 0 -0.126591 -0.0462422 -0.0553887 -0.033086 0 0 -0.660082 0 0 
170 1 170 0.259886 0.779935 0 0 -0.116793 -0.0645851 -0.0581278 -0.0263166 0 0 -0.0146446 0 0 
171 1 171 0.259902 0.819933 0 0 -0.0967415 -0.055411 -0.0487513 -0.0139672 0 0 0.751897 0 0 
172 1 172 0.259926 0.859931 0 0 -0.0908472 -0.0614926 -0.0488158 0.0144801 0 0 0.946342 0 0 
173 1 173 0.259955 0.899929 0 0 -0.0776826 -0.0374282 -0.0368749 0.0156849 0 0 1.35731 0 0 
174 1 174 0.259983 0.93993 0 0 -0.0817967 -0.0272924 -0.034965 0.0176203 0 0 1.21029 0 0 
175 1 175 0.260004 0.979934 0 0 -0.0766364 0.00419412 -0.0232146 0.00254754 0 0 1.06183 0 0 
176 1 176 0.299985 0.0199926 0 0 -0.0618627 -0.120352 -0.0584035 -0.072086 0 0 0.338074 0 0 
177 1 177 0.299957 0.0599785 0 0 -0.0736456 -0.118252 -0.0615044 -0.063948 0 0 1.01344 0 0 
178 1 178 0.299935 0.0999658 0 0 -0.0930385 -0.118874 -0.0679228 -0.045771 0 0 0.881654 0 0 
179 1 179 0.299925 0.139955 0 0 -0.106478 -0.10169 -0.066721 -0.0341025 0 0 1.05046 0 0 
180 1 180 0.299922 0.179947 0 0 -0.124851 -0.110874 -0.0755617 -0.0267305 0 0 1.10633 0 0 
181 1 181 0.299921 0.219939 0 0 -0.130865 -0.110895 -0.0774935 -0.0318287 0 0 1.48962 0 0 
182 1 182 0.299917 0.259931 0 0 -0.130299 -0.117017 -0.0792729 -0.0420303 0 0 2.00353 0 0 
183 1 183 0.299908 0.299921 0 0 -0.128053 -0.125611 -0.0813102 -0.0518683 0 0 2.78629 0 0 
184 1 184 0.299894 0.339911 0 0 -0.135874 -0.124283 -0.0833951 -0.0654933 0 0 3.13243 0 0 
185 1 185 0.299876 0.379901 0 0 -0.1492 -0.122971 -0.0872522 -0.0744245 0 0 3.20388 0 0 
186 1 186 0.299856 0.419895 0 0 -0.158471 -0.106859 -0.0850621 -0.0758513 0 0 2.8662 0 0 
187 1 187 0.29984 0.45989 0 0 -0.177235 -0.107839 -0.0914036 -0.0716161 0 0 2.16105 0 0 
188 1 188 0.299828 0.499887 0 0 -0.177036 -0.088258 -0.0850605 -0.0679056 0 0 1.66622 0 0 
189 1 189 0.299826 0.539887 0 0 -0.192426 -0.0970744 -0.0928219 -0.0445417 0 0 0.84984 0 0 
190 1 190 0.299835 0.579888 0 0 -0.187628 -0.0625369 -0.0801975 -0.0452912 0 0 1.19224 0 0 
191 1 191 0.29985 0.619892 0 0 -0.212722 -0.0818734 -0.0944525 -0.0263025 0 0 0.852486 0 0 
192 1 192 0.299868 0.659898 0 0 -0.207535 -0.0492067 -0.082305 -0.0344178 0 0 1.57917 0 0 
193 1 193 0.299878 0.699904 0 0 -0.205954 -0.0731166 -0.0894682 -0.0402129 0 0 1.72004 0 0 
194 1 194 0.299885 0.739908 0 0 -0.178722 -0.0609542 -0.0768289 -0.0417315 0 0 1.90386 0 0 
195 1 195 0.299893 0.77991 0 0 -0.15997 -0.0748808 -0.0752793 -0.0346572 0 0 2.09345 0 0 
196 1 196 0.299904 0.819909 0 0 -0.134194 -0.0729318 -0.066382 -0.0208686 0 0 2.17392 0 0 
197 1 197 0.299924 0.859907 0 0 -0.113305 -0.0582641 -0.0549835 0.00197951 0 0 1.92303 0 0 
198 1 198 0.299948 0.899908 0 0 -0.112972 -0.0488396 -0.0518497 0.00507354 0 0 1.92807 0 0 
199 1 199 0.299972 0.93991 0 0 -0.11473 -0.0251636 -0.0448385 0.00474881 0 0 1.74884 0 0 
200 1 200 0.299991 0.979917 0 0 -0.10838 0.00657253 -0.0326244 -0.00963371 0 0 1.91324 0 0 
201 1 201 0.339982 0.0199913 0 0 -0.0660717 -0.14032 -0.0661573 -0.074018 0 0 0.262816 0 0 
202 1 202 0.33995 0.0599743 0 0 -0.0705645 -0.134835 -0.0658358 -0.0692149 0 0 0.796289 0 0 
203 1 203 0.339927 0.0999588 0 0 -0.0937327 -0.137854 -0.074235 -0.0527614 0 0 0.967938 0 0 
204 1 204 0.339915 0.139946 0 0 -0.108353 -0.116429 -0.0720508 -0.0392257 0 0 1.42983 0 0 
205 1 205 0.339909 0.179936 0 0 -0.12985 -0.125797 -0.0819541 -0.0288783 0 0 1.44636 0 0 
206 1 206 0.339907 0.219926 0 0 -0.137452 -0.115358 -0.081042 -0.0335348 0 0 2.01395 0 0 
207 1 207 0.339902 0.259918 0 0 -0.141666 -0.121656 -0.0844107 -0.0380089 0 0 2.52031 0 0 
208 1 208 0.339895 0.299908 0 0 -0.142209 -0.135721 -0.0890964 -0.0509643 0 0 3.20551 0 0 
209 1 209 0.33988 0.339898 0 0 -0.138315 -0.12632 -0.0848321 -0.0691422 0 0 3.53687 0 0 
210 1 210 0.33986 0.379888 0 0 -0.140287 -0.129108 -0.0863586 -0.0731149 0 0 3.3101 0 0 
211 1 211 0.339838 0.419879 0 0 -0.133684 -0.104554 -0.0763657 -0.0820207 0 0 2.67271 0 0 
212 1 212 0.339817 0.459872 0 0 -0.145931 -0.113814 -0.0832706 -0.0756826 0 0 1.40972 0 0 
213 1 213 0.339801 0.499867 0 0 -0.134681 -0.0848613 -0.070378 -0.0728118 0 0 0.554868 0 0 
214 1 214 0.33979 0.539864 0 0 -0.155456 -0.0966257 -0.0808126 -0.0590722 0 0 -0.312109 0 0 
215 1 215 0.339786 0.579862 0 0 -0.156019 -0.0658688 -0.0711254 -0.0534804 0 0 -0.610631 0 0 
216 1 216 0.339787 0.619864 0 0 -0.165433 -0.0682 -0.0748947 -0.0398608 0 0 -1.41395 0 0 
217 1 217 0.339797 0.659867 0 0 -0.162411 -0.0379376 -0.0642171 -0.0395057 0 0 -1.16676 0 0 
218 1 218 0.339813 0.699872 0 0 -0.160355 -0.0496865 -0.0673255 -0.0372484 0 0 -0.969597 0 0 
219 1 219 0.339832 0.739876 0 0 -0.144347 -0.0452099 -0.0607539 -0.0410813 0 0 0.0664336 0 0 
220 1 220 0.339851 0.779878 0 0 -0.133512 -0.0547339 -0.0603323 -0.033465 0 0 0.685424 0 0 
221 1 221 0.339873 0.819879 0 0 -0.1195 -0.0600294 -0.0575339 -0.026035 0 0 1.33166 0 0 
222 1 222 0.339899 0.859879 0 0 -0.116177 -0.0487332 -0.0528527 -0.00661801 0 0 1.5006 0 0 
223 1 223 0.339927 0.899881 0 0 -0.12051 -0.0333044 -0.0492906 -0.00956418 0 0 1.66456 0 0 
224 1 224 0.339951 0.939887 0 0 -0.127887 -0.0154962 -0.0459577 -0.00671051 0 0 1.646 0 0 
225 1 225 0.33997 0.979896 0 0 -0.1259 0.00860349 -0.0375881 -0.016753 0 0 2.14235 0 0 
226 1 226 0.379984 0.0199898 0 0 -0.0859747 -0.167275 -0.0811864 -0.0759374 0 0 0.45772 0 0 
227 1 227 0.379953 0.0599698 0 0 -0.0928936 -0.163028 -0.0820407 -0.0717135 0 0 1.13769 0 0 
228 1 228 0.379926 0.0999519 0 0 -0.0992827 -0.152931 -0.0808521 -0.0599082 0 0 1.37065 0 0 
229 1 229 0.379908 0.139936 0 0 -0.113501 -0.138687 -0.0808429 -0.0458017 0 0 1.85392 0 0 
230 1 230 0.379899 0.179924 0 0 -0.132363 -0.131904 -0.0847215 -0.0328364 0 0 2.00952 0 0 
231 1 231 0.379895 0.219914 0 0 -0.13998 -0.122749 -0.0842283 -0.0327701 0 0 2.76734 0 0 
232 1 232 0.379891 0.259905 0 0 -0.138335 -0.120422 -0.0829514 -0.0340617 0 0 3.15813 0 0 
233 1 233 0.379884 0.299895 0 0 -0.146593 -0.138774 -0.091488 -0.0484551 0 0 3.71983 0 0 
234 1 234 0.379869 0.339884 0 0 -0.14537 -0.130386 -0.0884052 -0.0667674 0 0 4.14695 0 0 
235 1 235 0.379848 0.379874 0 0 -0.160301 -0.143323 -0.0973445 -0.0721729 0 0 3.8762 0 0 
236 1 236 0.379825 0.419863 0 0 -0.178318 -0.142315 -0.102803 -0.082973 0 0 3.36715 0 0 
237 1 237 0.379805 0.459854 0 0 -0.200459 -0.152741 -0.113257 -0.0718226 0 0 2.70117 0 0 
238 1 238 0.379791 0.499846 0 0 -0.206827 -0.138721 -0.110803 -0.0651348 0 0 2.21251 0 0 
239 1 239 0.379785 0.539839 0 0 -0.225274 -0.15195 -0.12097 -0.0552883 0 0 1.5916 0 0 
240 1 240 0.379789 0.579834 0 0 -0.221237 -0.116782 -0.108387 -0.0479535 0 0 1.42862 0 0 
241 1 241 0.3798 0.619833 0 0 -0.245081 -0.123669 -0.118257 -0.0428219 0 0 1.23456 0 0 
242 1 242 0.379814 0.659834 0 0 -0.246365 -0.0910236 -0.108188 -0.0437786 0 0 1.98901 0 0 
243 1 243 0.379826 0.699838 0 0 -0.244668 -0.0944638 -0.108747 -0.0369686 0 0 1.96886 0 0 
244 1 244 0.379839 0.739842 0 0 -0.221212 -0.0793783 -0.0963748 -0.0443666 0 0 2.67583 0 0 
245 1 245 0.379853 0.779845 0 0 -0.201308 -0.0852255 -0.0918645 -0.0296215 0 0 2.65939 0 0 
246 1 246 0.37987 0.819846 0 0 -0.18437 -0.0813027 -0.0851705 -0.0275379 0 0 2.86959 0 0 
247 1 247 0.37989 0.859848 0 0 -0.177227 -0.0641466 -0.0773825 -0.0136278 0 0 2.55865 0 0 
248 1 248 0.379912 0.899853 0 0 -0.18061 -0.0444151 -0.0721352 -0.0159491 0 0 2.36336 0 0 
249 1 249 0.379931 0.939861 0 0 -0.177578 -0.0194297 -0.0631586 -0.0144666 0 0 2.26005 0 0 
250 1 250 0.379949 0.979872 0 0 -0.160585 -0.0028243 -0.0523755 -0.0187273 0 0 2.8358 0 0 
251 1 251 0.419981 0.0199889 0 0 -0.0828136 -0.178716 -0.0838419 -0.0766449 0 0 0.310461 0 0 
252 1 252 0.419947 0.0599668 0 0 -0.086175 -0.175602 -0.0839181 -0.0713521 0 0 0.87313 0 0 
253 1 253 0.419919 0.0999466 0 0 -0.0992194 -0.162906 -0.0840315 -0.0629589 0 0 1.32939 0 0 
254 1 254 0.419899 0.139929 0 0 -0.118804 -0.160187 -0.0894437 -0.0471053 0 0 1.95358 0 0 
255 1 255 0.419887 0.179915 0 0 -0.124174 -0.132641 -0.0823318 -0.0348629 0 0 2.3227 0 0 
256 1 256 0.419881 0.219904 0 0 -0.137766 -0.127774 -0.085132 -0.0316242 0 0 3.13905 0 0 
257 1 257 0.419876 0.259894 0 0 -0.142507 -0.13007 -0.0873885 -0.029815 0 0 3.42473 0 0 
258 1 258 0.419869 0.299884 0 0 -0.138198 -0.124093 -0.0840881 -0.0458781 0 0 3.92167 0 0 
259 1 259 0.419854 0.339874 0 0 -0.14138 -0.134665 -0.088501 -0.0616118 0 0 3.87277 0 0 
260 1 260 0.419832 0.379862 0 0 -0.146847 -0.144388 -0.0933715 -0.0737228 0 0 3.34687 0 0 
261 1 261 0.419806 0.419851 0 0 -0.15253 -0.141645 -0.0943151 -0.0865112 0 0 2.70227 0 0 
262 1 262 0.419782 0.459839 0 0 -0.15939 -0.153726 -0.100392 -0.0742638 0 0 1.64575 0 0 
263 1 263 0.419763 0.499828 0 0 -0.151727 -0.131207 -0.0907089 -0.0759477 0 0 1.05247 0 0 
264 1 264 0.419748 0.539817 0 0 -0.178513 -0.155837 -0.107207 -0.0684586 0 0 0.278935 0 0 
265 1 265 0.41974 0.579808 0 0 -0.174208 -0.119014 -0.0940091 -0.0597035 0 0 -0.0907219 0 0 
266 1 266 0.419736 0.619803 0 0 -0.187576 -0.116672 -0.0975533 -0.0578616 0 0 -0.573749 0 0 
267 1 267 0.419741 0.659801 0 0 -0.18437 -0.0802914 -0.0848496 -0.0487788 0 0 -0.551273 0 0 
268 1 268 0.419758 0.699803 0 0 -0.188266 -0.0733057 -0.0838572 -0.0374043 0 0 -0.345638 0 0 
269 1 269 0.419779 0.739806 0 0 -0.195075 -0.0693612 -0.0847736 -0.0434707 0 0 0.848603 0 0 
270 1 270 0.419803 0.779809 0 0 -0.189714 -0.0717564 -0.083825 -0.0247095 0 0 1.06004 0 0 
271 1 271 0.41983 0.819812 0 0 -0.183953 -0.0698815 -0.081375 -0.0301578 0 0 1.99183 0 0 
272 1 272 0.419855 0.859815 0 0 -0.192969 -0.0593869 -0.0809079 -0.0184041 0 0 1.89667 0 0 
273 1 273 0.419878 0.899823 0 0 -0.195643 -0.0334459 -0.073443 -0.0251278 0 0 1.90623 0 0 
274 1 274 0.419899 0.939833 0 0 -0.191492 -0.0161278 -0.0665658 -0.0166712 0 0 1.87614 0 0 
275 1 275 0.41992 0.979846 0 0 -0.168402 -0.00178794 -0.0545511 -0.0174567 0 0 2.64379 0 0 
276 1 276 0.459983 0.0199882 0 0 -0.0960356 -0.19288 -0.0926307 -0.0772845 0 0 0.41114 0 0 
277 1 277 0.45995 0.0599644 0 0 -0.102668 -0.194718 -0.0953437 -0.0720335 0 0 1.08872 0 0 
278 1 278 0.459919 0.0999428 0 0 -0.094812 -0.168289 -0.0843449 -0.0656674 0 0 1.56077 0 0 
279 1 279 0.459895 0.139923 0 0 -0.108503 -0.16965 -0.0891761 -0.0487575 0 0 2.18551 0 0 
280 1 280 0.459879 0.179907 0 0 -0.116932 -0.139837 -0.0823174 -0.0384839 0 0 2.79665 0 0 
281 1 281 0.459871 0.219894 0 0 -0.132864 -0.134396 -0.0856826 -0.0327255 0 0 3.6636 0 0 
282 1 282 0.459865 0.259883 0 0 -0.143835 -0.135342 -0.0895061 -0.0274123 0 0 3.76579 0 0 
283 1 283 0.459857 0.299873 0 0 -0.146183 -0.122989 -0.0862953 -0.0450719 0 0 4.13922 0 0 
284 1 284 0.459842 0.339863 0 0 -0.161291 -0.14714 -0.0988924 -0.0613202 0 0 3.86711 0 0 
285 1 285 0.459821 0.37985 0 0 -0.174746 -0.168232 -0.109977 -0.0735996 0 0 3.38208 0 0 
286 1 286 0.459794 0.419837 0 0 -0.179896 -0.163041 -0.109963 -0.0864778 0 0 3.14008 0 0 
287 1 287 0.45977 0.459823 0 0 -0.221292 -0.205737 -0.136963 -0.0732782 0 0 2.40919 0 0 
288 1 288 0.459753 0.499807 0 0 -0.238309 -0.196528 -0.139474 -0.0710559 0 0 2.42619 0 0 
289 1 289 0.459743 0.539793 0 0 -0.25494 -0.210662 -0.14935 -0.0631607 0 0 2.17676 0 0 
290 1 290 0.459743 0.579781 0 0 -0.256142 -0.186833 -0.142082 -0.0520515 0 0 2.00317 0 0 
291 1 291 0.459749 0.619772 0 0 -0.273762 -0.179383 -0.145351 -0.0585059 0 0 2.3649 0 0 
292 1 292 0.459756 0.659767 0 0 -0.286285 -0.150514 -0.140102 -0.0519048 0 0 2.67085 0 0 
293 1 293 0.459767 0.699766 0 0 -0.288339 -0.12866 -0.133744 -0.0403868 0 0 2.65589 0 0 
294 1 294 0.45978 0.739769 0 0 -0.276043 -0.109951 -0.123786 -0.0465584 0 0 3.49653 0 0 
295 1 295 0.459797 0.779772 0 0 -0.26885 -0.105018 -0.119897 -0.0223004 0 0 2.9936 0 0 
296 1 296 0.459817 0.819776 0 0 -0.263346 -0.0929127 -0.114243 -0.0365395 0 0 3.46547 0 0 
297 1 297 0.459833 0.859782 0 0 -0.262423 -0.0821452 -0.110497 -0.0257412 0 0 2.76783 0 0 
298 1 298 0.459851 0.899791 0 0 -0.257214 -0.0499593 -0.0984955 -0.0337425 0 0 2.58122 0 0 
299 1 299 0.459869 0.939803 0 0 -0.243887 -0.0334179 -0.0889196 -0.0178607 0 0 2.27061 0 0 
300 1 300 0.459893 0.979817 0 0 -0.202809 -0.015627 -0.0700241 -0.0117227 0 0 2.95501 0 0 
301 1 301 0.499981 0.0199878 0 0 -0.087333 -0.193708 -0.090105 -0.0771301 0 0 0.117657 0 0 
302 1 302 0.499945 0.0599633 0 0 -0.0906961 -0.194785 -0.0915248 -0.072467 0 0 0.606157 0 0 
303 1 303 0.499914 0.0999409 0 0 -0.0955123 -0.174608 -0.0865981 -0.066072 0 0 1.33783 0 0 
304 1 304 0.499889 0.13992 0 0 -0.113299 -0.182143 -0.0947237 -0.0502328 0 0 2.141 0 0 
305 1 305 0.49987 0.179902 0 0 -0.115727 -0.152016 -0.085838 -0.0418013 0 0 2.90262 0 0 
306 1 306 0.499858 0.219887 0 0 -0.129687 -0.146807 -0.0886455 -0.0328578 0 0 3.7326 0 0 
307 1 307 0.49985 0.259875 0 0 -0.143228 -0.136639 -0.089726 -0.030902 0 0 3.82913 0 0 
308 1 308 0.499841 0.299864 0 0 -0.155335 -0.135859 -0.0933589 -0.0459508 0 0 3.91224 0 0 
309 1 309 0.499825 0.339853 0 0 -0.157869 -0.147799 -0.098003 -0.0620503 0 0 3.3437 0 0 
310 1 310 0.499803 0.37984 0 0 -0.167669 -0.16823 -0.107702 -0.0772267 0 0 2.80305 0 0 
311 1 311 0.499776 0.419826 0 0 -0.167241 -0.173537 -0.109268 -0.0882624 0 0 2.22972 0 0 
312 1 312 0.499748 0.459808 0 0 -0.174235 -0.200392 -0.120139 -0.0850295 0 0 1.30192 0 0 
313 1 313 0.499726 0.499791 0 0 -0.171152 -0.189362 -0.115612 -0.0799271 0 0 0.959278 0 0 
314 1 314 0.499708 0.539773 0 0 -0.180964 -0.196995 -0.121208 -0.0760589 0 0 0.614881 0 0 
315 1 315 0.499694 0.579756 0 0 -0.19199 -0.1824 -0.12006 -0.0694741 0 0 0.467158 0 0 
316 1 316 0.499685 0.619743 0 0 -0.201223 -0.167506 -0.118245 -0.0701431 0 0 0.39071 0 0 
317 1 317 0.499684 0.659734 0 0 -0.200447 -0.132024 -0.106606 -0.0610176 0 0 0.394988 0 0 
318 1 318 0.499695 0.69973 0 0 -0.220334 -0.10916 -0.105652 -0.0447896 0 0 0.511436 0 0 
319 1 319 0.499715 0.739731 0 0 -0.235618 -0.0950628 -0.106031 -0.0462099 0 0 1.53032 0 0 
320 1 320 0.499739 0.779734 0 0 -0.241456 -0.0885409 -0.105815 -0.0246451 0 0 1.44995 0 0 
321 1 321 0.499765 0.819739 0 0 -0.252175 -0.0786545 -0.106079 -0.0418948 0 0 2.36744 0 0 
322 1 322 0.499787 0.859747 0 0 -0.261467 -0.0713302 -0.106717 -0.0303986 0 0 1.8338 0 0 
323 1 323 0.499807 0.899757 0 0 -0.256738 -0.0424357 -0.0959252 -0.0432546 0 0 2.06029 0 0 
324 1 324 0.499828 0.939771 0 0 -0.247278 -0.0292368 -0.0886609 -0.0143972 0 0 1.67204 0 0 
325 1 325 0.499859 0.979785 0 0 -0.215322 -0.0123305 -0.0729773 -0.00380023 0 0 2.32945 0 0 
326 1 326 0.539983 0.0199877 0 0 -0.0998954 -0.200171 -0.09621 -0.0765503 0 0 0.137235 0 0 