ITEM: TIMESTEP
0
ITEM: NUMBER OF ATOMS
7127
ITEM: BOX BOUNDS sm sm sm
0 4
0 2
0 0
ITEM: ATOMS id type tag x y z vx 
0 1 0 0 0 0 0 
1 1 1 0 0.04 0 0 
2 1 2 0 0.08 0 0 
3 1 3 0 0.12 0 0 
4 1 4 0 0.16 0 0 
5 1 5 0 0.2 0 0 
6 1 6 0 0.24 0 0 
7 1 7 0 0.28 0 0 
8 1 8 0 0.32 0 0 
9 1 9 0 0.36 0 0 
10 1 10 0 0.4 0 0 
11 1 11 0 0.44 0 0 
12 1 12 0 0.48 0 0 
13 1 13 0 0.52 0 0 
14 1 14 0 0.56 0 0 
15 1 15 0 0.6 0 0 
16 1 16 0 0.64 0 0 
17 1 17 0 0.68 0 0 
18 1 18 0 0.72 0 0 
19 1 19 0 0.76 0 0 
20 1 20 0 0.8 0 0 
21 1 21 0 0.84 0 0 
22 1 22 0 0.88 0 0 
23 1 23 0 0.92 0 0 
24 1 24 0 0.96 0 0 
25 1 25 0 1 0 0 
26 1 26 0.04 0 0 0 
27 1 27 0.0400101 0.0400101 0 -0.895763 
28 1 28 0.0400097 0.0800078 0 -0.814249 
29 1 29 0.0400099 0.120009 0 0.146257 
30 1 30 0.0400152 0.160013 0 0.737477 
31 1 31 0.0400211 0.200012 0 0.968227 
32 1 32 0.0400201 0.240009 0 1.37475 
33 1 33 0.0400217 0.280005 0 1.87301 
34 1 34 0.0400131 0.320005 0 2.00791 
35 1 35 0.0400115 0.360008 0 2.00829 
36 1 36 0.040004 0.400015 0 1.91827 
37 1 37 0.0400075 0.440017 0 1.71188 
38 1 38 0.0400039 0.480018 0 1.80496 
39 1 39 0.0400067 0.520015 0 1.75678 
40 1 40 0.0400024 0.560011 0 1.50346 
41 1 41 0.0400044 0.600008 0 1.2325 
42 1 42 0.0399932 0.640009 0 0.723916 
43 1 43 0.0399982 0.680012 0 0.194531 
44 1 44 0.0399913 0.720018 0 0.0374344 
45 1 45 0.0400003 0.760023 0 -0.173497 
46 1 46 0.0400007 0.800024 0 -0.0667488 
47 1 47 0.0400054 0.840018 0 -0.151851 
48 1 48 0.0400097 0.880011 0 0.335175 
49 1 49 0.039998 0.920017 0 0.725092 
50 1 50 0.0400161 0.960003 0 1.75469 
51 1 51 0.0399746 1.00003 0 3.22306 
52 1 52 0.08 0 0 0 
53 1 53 0.0800156 0.0400114 0 -1.5364 
54 1 54 0.0800149 0.0800137 0 -0.919022 
55 1 55 0.0800156 0.120022 0 0.55907 
56 1 56 0.0800226 0.160027 0 1.14719 
57 1 57 0.0800354 0.200026 0 1.48853 
58 1 58 0.080037 0.240022 0 2.20925 
59 1 59 0.0800367 0.280016 0 3.05498 
60 1 60 0.0800206 0.320013 0 3.18989 
61 1 61 0.0800139 0.360015 0 2.86353 
62 1 62 0.080003 0.40002 0 2.59529 
63 1 63 0.0800082 0.440025 0 2.39371 
64 1 64 0.0800088 0.480023 0 2.84524 
65 1 65 0.080012 0.520021 0 3.13131 
66 1 66 0.080009 0.560012 0 3.0444 
67 1 67 0.0800026 0.600012 0 2.60508 
68 1 68 0.0799909 0.64001 0 1.74558 
69 1 69 0.0799838 0.680023 0 0.952921 
70 1 70 0.0799836 0.720029 0 0.741811 
71 1 71 0.0799861 0.760046 0 0.507878 
72 1 72 0.080008 0.800044 0 0.686338 
73 1 73 0.0800092 0.840049 0 0.85838 
74 1 74 0.0800148 0.880037 0 1.17881 
75 1 75 0.0800068 0.920041 0 1.92409 
76 1 76 0.080007 0.960043 0 3.83831 
77 1 77 0.079998 1.00003 0 5.65786 
78 1 78 0.12 0 0 0 
79 1 79 0.120014 0.0400085 0 -1.72075 
80 1 80 0.120016 0.0800207 0 -0.811062 
81 1 81 0.120016 0.120032 0 0.736733 
82 1 82 0.120023 0.160035 0 1.26188 
83 1 83 0.12004 0.200036 0 1.5999 
84 1 84 0.120044 0.240032 0 2.35404 
85 1 85 0.12004 0.280028 0 3.31343 
86 1 86 0.12002 0.320024 0 3.39698 
87 1 87 0.120007 0.360024 0 2.75288 
88 1 88 0.119997 0.400025 0 2.38847 
89 1 89 0.120003 0.440027 0 2.36988 
90 1 90 0.120011 0.480025 0 3.21599 
91 1 91 0.120015 0.520022 0 4.01159 
92 1 92 0.120016 0.560015 0 4.34327 
93 1 93 0.120002 0.600017 0 4.01779 
94 1 94 0.119987 0.640019 0 3.01315 
95 1 95 0.119973 0.680033 0 2.26367 
96 1 96 0.119969 0.720046 0 2.07919 
97 1 97 0.11998 0.76006 0 1.96703 
98 1 98 0.120002 0.80007 0 2.03176 
99 1 99 0.120018 0.840072 0 2.23818 
100 1 100 0.120017 0.880074 0 2.64412 
101 1 101 0.120009 0.920072 0 3.67186 
102 1 102 0.120015 0.96006 0 5.96317 
103 1 103 0.12001 1.00007 0 7.66857 
104 1 104 0.16 0 0 0 
105 1 105 0.160007 0.0400102 0 -1.1072 
106 1 106 0.160008 0.0800257 0 -0.392582 
107 1 107 0.160008 0.120033 0 0.791978 
108 1 108 0.160017 0.160035 0 1.2878 
109 1 109 0.160035 0.200037 0 1.44238 
110 1 110 0.16004 0.240036 0 1.95729 
111 1 111 0.160033 0.280035 0 2.78356 
112 1 112 0.160014 0.320035 0 2.73849 
113 1 113 0.159996 0.360034 0 1.99398 
114 1 114 0.159988 0.400036 0 1.60126 
115 1 115 0.159997 0.440035 0 1.80683 
116 1 116 0.16001 0.480034 0 2.98117 
117 1 117 0.160017 0.520032 0 4.28937 
118 1 118 0.160015 0.56003 0 5.06507 
119 1 119 0.159999 0.600032 0 5.07812 
120 1 120 0.159975 0.640039 0 4.33574 
121 1 121 0.15996 0.68005 0 3.72639 
122 1 122 0.159953 0.720062 0 3.66144 
123 1 123 0.159967 0.760076 0 3.69569 
124 1 124 0.159992 0.800084 0 3.7282 
125 1 125 0.160013 0.840096 0 3.82397 
126 1 126 0.160018 0.880091 0 4.38173 
127 1 127 0.160015 0.920095 0 5.63016 
128 1 128 0.160023 0.960086 0 7.77841 
129 1 129 0.16001 1.00009 0 9.21664 
130 1 130 0.2 0 0 0 
131 1 131 0.199999 0.0400091 0 -0.00130777 
132 1 132 0.199997 0.080021 0 0.517333 
133 1 133 0.199999 0.120022 0 1.17583 
134 1 134 0.200009 0.160027 0 1.45956 
135 1 135 0.200024 0.20003 0 1.33402 
136 1 136 0.200027 0.240032 0 1.5444 
137 1 137 0.200018 0.280038 0 1.96308 
138 1 138 0.200001 0.320043 0 1.57099 
139 1 139 0.199985 0.360044 0 0.790457 
140 1 140 0.199979 0.400046 0 0.395607 
141 1 141 0.199991 0.440046 0 0.80567 
142 1 142 0.200005 0.480046 0 2.18772 
143 1 143 0.200018 0.520048 0 3.8381 
144 1 144 0.200015 0.56005 0 5.09361 
145 1 145 0.199998 0.600056 0 5.53499 
146 1 146 0.199973 0.640062 0 5.40117 
147 1 147 0.199951 0.680074 0 5.11425 
148 1 148 0.199948 0.72008 0 5.18849 
149 1 149 0.199959 0.760093 0 5.37163 
150 1 150 0.199985 0.800096 0 5.41668 
151 1 151 0.200007 0.84011 0 5.70128 
152 1 152 0.200016 0.880111 0 6.385 
153 1 153 0.200019 0.92011 0 7.53841 
154 1 154 0.200022 0.960111 0 9.14079 
155 1 155 0.200011 1.00011 0 10.0715 
156 1 156 0.24 0 0 0 
157 1 157 0.239989 0.040001 0 0.833804 
158 1 158 0.239985 0.0800059 0 1.3202 
159 1 159 0.239989 0.120005 0 1.57972 
160 1 160 0.24 0.16001 0 1.69042 
161 1 161 0.240007 0.200013 0 1.56178 
162 1 162 0.240008 0.240022 0 1.53475 
163 1 163 0.240001 0.280038 0 1.31782 
164 1 164 0.239987 0.320044 0 0.565099 
165 1 165 0.239975 0.360051 0 -0.0929938 
166 1 166 0.239972 0.400051 0 -0.403696 
167 1 167 0.239986 0.440053 0 0.0565378 
168 1 168 0.24 0.480055 0 1.3169 
169 1 169 0.240012 0.520061 0 2.91694 
170 1 170 0.240008 0.560069 0 4.4619 
171 1 171 0.239988 0.600079 0 5.35724 
172 1 172 0.239963 0.640087 0 5.87749 
173 1 173 0.239942 0.680096 0 6.0862 
174 1 174 0.239939 0.720101 0 6.36982 
175 1 175 0.239951 0.760109 0 6.66939 
176 1 176 0.239973 0.800115 0 6.68726 
177 1 177 0.239999 0.840126 0 7.2045 
178 1 178 0.240012 0.880132 0 8.22437 
179 1 179 0.240018 0.920137 0 9.2342 
180 1 180 0.240019 0.960134 0 10.0238 
181 1 181 0.240004 1.00014 0 10.3364 
182 1 182 0.28 0 0 0 
183 1 183 0.279977 0.0399889 0 1.54309 
184 1 184 0.279973 0.0799881 0 2.03974 
185 1 185 0.279981 0.119987 0 1.92718 
186 1 186 0.279989 0.159988 0 2.08461 
187 1 187 0.279989 0.199995 0 2.24116 
188 1 188 0.279989 0.24001 0 1.85615 
189 1 189 0.279983 0.280031 0 0.907513 
190 1 190 0.279974 0.320041 0 0.00419756 
191 1 191 0.279969 0.360052 0 -0.378068 
192 1 192 0.279969 0.400054 0 -0.605862 
193 1 193 0.279982 0.440056 0 -0.275675 
194 1 194 0.279992 0.480064 0 0.666808 
195 1 195 0.280002 0.520072 0 1.97253 
196 1 196 0.279997 0.560085 0 3.50819 
197 1 197 0.27998 0.600098 0 4.83842 
198 1 198 0.279957 0.640107 0 6.07559 
199 1 199 0.279938 0.680116 0 6.77103 
200 1 200 0.279938 0.720116 0 7.21432 
201 1 201 0.279946 0.760125 0 7.5687 
202 1 202 0.279963 0.800129 0 7.65276 
203 1 203 0.279985 0.840146 0 8.28281 
204 1 204 0.280002 0.880154 0 9.43401 
205 1 205 0.280015 0.92016 0 10.3508 
206 1 206 0.280013 0.960163 0 10.4621 
207 1 207 0.279996 1.00017 0 10.2448 
208 1 208 0.32 0 0 0 
209 1 209 0.319965 0.0399804 0 1.8373 
210 1 210 0.319961 0.0799747 0 2.21923 
211 1 211 0.319971 0.119971 0 2.00505 
212 1 212 0.319975 0.159972 0 2.51341 
213 1 213 0.31997 0.199982 0 2.9067 
214 1 214 0.319967 0.240001 0 2.14847 
215 1 215 0.319962 0.280021 0 0.906072 
216 1 216 0.31996 0.320037 0 0.194934 
217 1 217 0.319963 0.36005 0 0.0756246 
218 1 218 0.319965 0.400053 0 0.0185359 
219 1 219 0.319972 0.440059 0 0.210734 
220 1 220 0.319979 0.480068 0 0.656985 
221 1 221 0.319983 0.520081 0 1.46037 
222 1 222 0.319973 0.560096 0 2.69829 
223 1 223 0.319957 0.600113 0 4.23428 
224 1 224 0.319939 0.640121 0 6.02505 
225 1 225 0.319925 0.68013 0 7.1992 
226 1 226 0.319926 0.720128 0 7.77379 
227 1 227 0.319935 0.760135 0 8.06706 
228 1 228 0.319947 0.800141 0 8.27578 
229 1 229 0.319967 0.840156 0 9.02016 
230 1 230 0.31999 0.88017 0 10.1616 
231 1 231 0.320008 0.920178 0 10.9905 
232 1 232 0.320004 0.960182 0 10.6988 
233 1 233 0.319985 1.00019 0 10.1594 
234 1 234 0.36 0 0 0 
235 1 235 0.359956 0.0399786 0 1.6165 
236 1 236 0.359949 0.0799664 0 1.91402 
237 1 237 0.359958 0.11996 0 1.84989 
238 1 238 0.359959 0.159962 0 2.61496 
239 1 239 0.359949 0.199974 0 3.12081 
240 1 240 0.359941 0.239993 0 2.38412 
241 1 241 0.359938 0.280012 0 1.27817 
242 1 242 0.359943 0.320032 0 0.804389 
243 1 243 0.359951 0.360047 0 0.976087 
244 1 244 0.359955 0.400051 0 1.32052 
245 1 245 0.359956 0.440063 0 1.49154 
246 1 246 0.359957 0.480072 0 1.30707 
247 1 247 0.359955 0.520089 0 1.5277 
248 1 248 0.359944 0.560106 0 2.43352 
249 1 249 0.359934 0.600123 0 4.02826 
250 1 250 0.359922 0.640132 0 6.10074 
251 1 251 0.359916 0.680137 0 7.54289 
252 1 252 0.359918 0.720137 0 8.22489 
253 1 253 0.359923 0.760142 0 8.41798 
254 1 254 0.35993 0.800147 0 8.64902 
255 1 255 0.359945 0.840163 0 9.3913 
256 1 256 0.359971 0.880175 0 10.4925 
257 1 257 0.359995 0.920189 0 11.2928 
258 1 258 0.359991 0.960198 0 10.8207 
259 1 259 0.359974 1.00021 0 10.1585 
260 1 260 0.4 0 0 0 
261 1 261 0.39995 0.039979 0 1.07657 
262 1 262 0.399938 0.0799612 0 1.38775 
263 1 263 0.399941 0.119955 0 1.46886 
264 1 264 0.399935 0.159957 0 2.20931 
265 1 265 0.399919 0.199969 0 2.79272 
266 1 266 0.399909 0.239986 0 2.30846 
267 1 267 0.399907 0.280007 0 1.44925 
268 1 268 0.399916 0.320027 0 1.39584 
269 1 269 0.399926 0.360041 0 2.17706 
270 1 270 0.399932 0.400052 0 2.88794 
271 1 271 0.39993 0.440066 0 2.99218 
272 1 272 0.399922 0.480078 0 2.4195 
273 1 273 0.399915 0.520097 0 2.13402 
274 1 274 0.399901 0.560115 0 2.61927 
275 1 275 0.399895 0.600131 0 4.08674 
276 1 276 0.39989 0.640139 0 6.26026 
277 1 277 0.399889 0.680142 0 7.81082 
278 1 278 0.399895 0.720139 0 8.44922 
279 1 279 0.3999 0.760144 0 8.65423 
280 1 280 0.399904 0.800149 0 8.96267 
281 1 281 0.399917 0.840163 0 9.54456 
282 1 282 0.399947 0.880177 0 10.5201 
283 1 283 0.399972 0.920193 0 11.278 
284 1 284 0.399972 0.960206 0 10.8628 
285 1 285 0.399958 1.00022 0 10.318 
286 1 286 0.44 0 0 0 
287 1 287 0.43995 0.039979 0 0.33263 
288 1 288 0.43993 0.079957 0 0.570117 
289 1 289 0.439921 0.119952 0 0.766864 
290 1 290 0.439906 0.159954 0 1.42771 
291 1 291 0.439884 0.199966 0 2.04066 
292 1 292 0.439871 0.239981 0 1.83901 
293 1 293 0.439867 0.279998 0 1.48869 
294 1 294 0.439877 0.320017 0 2.04611 
295 1 295 0.439891 0.360034 0 3.23588 
296 1 296 0.439898 0.40005 0 4.09461 
297 1 297 0.439891 0.440066 0 4.21987 
298 1 298 0.439879 0.480081 0 3.5686 
299 1 299 0.439868 0.520104 0 2.97048 
300 1 300 0.439857 0.56012 0 3.08418 
301 1 301 0.439858 0.600136 0 4.31914 
302 1 302 0.439863 0.640142 0 6.35836 
303 1 303 0.43987 0.680143 0 7.97854 
304 1 304 0.439873 0.720141 0 8.559 
305 1 305 0.439877 0.760142 0 8.71848 
306 1 306 0.439875 0.800147 0 9.13294 
307 1 307 0.439885 0.840158 0 9.56005 
308 1 308 0.439914 0.880171 0 10.3652 
309 1 309 0.439938 0.920192 0 11.015 
310 1 310 0.439945 0.960209 0 10.8252 
311 1 311 0.43994 1.00022 0 10.5977 
312 1 312 0.48 0 0 0 
313 1 313 0.479952 0.0399786 0 -0.213704 
314 1 314 0.479922 0.0799543 0 -0.0826284 
315 1 315 0.479895 0.119947 0 0.169787 
316 1 316 0.47987 0.159948 0 0.569967 
317 1 317 0.479844 0.199958 0 0.976089 
318 1 318 0.479827 0.239969 0 1.11612 
319 1 319 0.47982 0.279983 0 1.45031 
320 1 320 0.479829 0.320001 0 2.45459 
321 1 321 0.479842 0.36002 0 3.65694 
322 1 322 0.479849 0.400039 0 4.62798 
323 1 323 0.47984 0.440061 0 4.95245 
324 1 324 0.479827 0.480079 0 4.21066 
325 1 325 0.479813 0.520103 0 3.45111 
326 1 326 0.479803 0.560119 0 3.48089 
327 1 327 0.479807 0.600135 0 4.45042 
328 1 328 0.479818 0.640139 0 6.09513 
329 1 329 0.47983 0.68014 0 7.67393 
330 1 330 0.479835 0.72014 0 8.4148 
331 1 331 0.479838 0.760139 0 8.74478 
332 1 332 0.479836 0.800142 0 9.26532 
333 1 333 0.479846 0.84015 0 9.53994 
334 1 334 0.479871 0.880162 0 10.0798 
335 1 335 0.479894 0.920184 0 10.5044 
336 1 336 0.47991 0.960204 0 10.6852 
337 1 337 0.479914 1.00022 0 10.9189 
338 1 338 0.52 0 0 0 
339 1 339 0.519959 0.0399768 0 -0.389349 
340 1 340 0.519916 0.079951 0 -0.28955 
341 1 341 0.519871 0.11994 0 -0.0719136 
342 1 342 0.519834 0.15994 0 -0.0927806 
343 1 343 0.519804 0.199947 0 0.00540078 
344 1 344 0.519782 0.239953 0 0.524264 
345 1 345 0.519771 0.279965 0 1.3765 
346 1 346 0.519776 0.319979 0 2.52834 
347 1 347 0.519783 0.36 0 3.61282 
348 1 348 0.51979 0.400023 0 4.42137 
349 1 349 0.519783 0.440048 0 4.71599 
350 1 350 0.519768 0.48007 0 4.119 
351 1 351 0.519755 0.520094 0 3.48366 
352 1 352 0.519752 0.56011 0 3.50263 
353 1 353 0.519765 0.600126 0 4.25174 
354 1 354 0.519783 0.64013 0 5.55075 
355 1 355 0.519798 0.680132 0 7.01882 
356 1 356 0.519801 0.720132 0 7.92184 
357 1 357 0.519801 0.760132 0 8.5647 
358 1 358 0.519796 0.800135 0 9.2782 
359 1 359 0.519802 0.840139 0 9.48331 
360 1 360 0.519821 0.88015 0 9.74835 
361 1 361 0.51984 0.920171 0 9.91322 
362 1 362 0.519865 0.960193 0 10.4874 
363 1 363 0.519878 1.00021 0 11.1737 
364 1 364 0.56 0 0 0 
365 1 365 0.559963 0.0399733 0 -0.201991 
366 1 366 0.559907 0.0799475 0 -0.101424 
367 1 367 0.559844 0.119935 0 -0.0444297 
368 1 368 0.559798 0.159932 0 -0.449474 
369 1 369 0.559764 0.199935 0 -0.573286 
370 1 370 0.559738 0.239936 0 0.24353 
371 1 371 0.559722 0.279945 0 1.46034 
372 1 372 0.559719 0.319955 0 2.56182 
373 1 373 0.559721 0.359975 0 3.28713 
374 1 374 0.559725 0.400002 0 3.66037 
375 1 375 0.559718 0.440029 0 3.75972 
376 1 376 0.559706 0.480053 0 3.50719 
377 1 377 0.559695 0.520078 0 3.24945 
378 1 378 0.559695 0.560093 0 3.28314 
379 1 379 0.559709 0.600107 0 3.81915 
380 1 380 0.559729 0.640113 0 4.78343 
381 1 381 0.559747 0.680117 0 6.1462 
382 1 382 0.55975 0.720119 0 7.34103 
383 1 383 0.55975 0.760119 0 8.39802 
384 1 384 0.559748 0.800122 0 9.36779 
385 1 385 0.559752 0.840123 0 9.6038 
386 1 386 0.559764 0.880134 0 9.57638 
387 1 387 0.559779 0.920153 0 9.45035 
388 1 388 0.55981 0.960177 0 10.2276 
389 1 389 0.559829 1.0002 0 11.1571 
390 1 390 0.6 0 0 0 
391 1 391 0.599964 0.0399707 0 0.351464 
392 1 392 0.599899 0.0799467 0 0.51187 
393 1 393 0.599822 0.119933 0 0.351909 
394 1 394 0.599767 0.159925 0 -0.37274 
395 1 395 0.599728 0.199924 0 -0.666513 
396 1 396 0.599699 0.239921 0 0.333135 
397 1 397 0.599677 0.279925 0 1.80752 
398 1 398 0.599665 0.319932 0 2.74341 
399 1 399 0.599659 0.359952 0 2.85223 
400 1 400 0.599658 0.399977 0 2.7554 
401 1 401 0.59965 0.440006 0 2.80582 
402 1 402 0.599643 0.480031 0 2.77581 
403 1 403 0.599638 0.520055 0 2.84069 
404 1 404 0.599644 0.560069 0 3.0998 
405 1 405 0.599664 0.600082 0 3.49047 
406 1 406 0.599688 0.640089 0 4.05513 
407 1 407 0.599706 0.680096 0 5.29997 
408 1 408 0.599707 0.7201 0 6.83383 
409 1 409 0.599704 0.760102 0 8.31023 
410 1 410 0.5997 0.800105 0 9.53697 
411 1 411 0.5997 0.840105 0 9.87056 
412 1 412 0.599703 0.880116 0 9.6062 
413 1 413 0.599713 0.920133 0 9.24513 
414 1 414 0.599743 0.96016 0 9.95896 
415 1 415 0.599766 1.00019 0 10.8346 
416 1 416 0.64 0 0 0 
417 1 417 0.639957 0.0399699 0 0.92246 
418 1 418 0.639882 0.079949 0 1.09687 
419 1 419 0.639797 0.119935 0 0.794752 
420 1 420 0.639736 0.159923 0 0.0165185 
421 1 421 0.639695 0.199917 0 -0.230768 
422 1 422 0.639662 0.23991 0 0.926959 
423 1 423 0.639633 0.27991 0 2.44022 
424 1 424 0.639613 0.319913 0 3.12749 
425 1 425 0.639594 0.359931 0 2.75812 
426 1 426 0.639587 0.399953 0 2.17845 
427 1 427 0.639582 0.439982 0 2.06579 
428 1 428 0.639577 0.480007 0 2.31149 
429 1 429 0.639576 0.520027 0 2.77918 
430 1 430 0.639588 0.560041 0 3.25429 
431 1 431 0.639605 0.600053 0 3.51388 
432 1 432 0.639625 0.640061 0 3.72244 
433 1 433 0.639642 0.680071 0 4.77529 
434 1 434 0.639646 0.720077 0 6.52061 
435 1 435 0.639646 0.760082 0 8.33774 
436 1 436 0.639646 0.800086 0 9.81966 
437 1 437 0.639644 0.840088 0 10.3194 
438 1 438 0.63964 0.880099 0 9.91056 
439 1 439 0.639644 0.920115 0 9.34245 
440 1 440 0.639667 0.960145 0 9.62493 
441 1 441 0.639689 1.00018 0 10.108 
442 1 442 0.68 0 0 0 
443 1 443 0.679946 0.0399718 0 1.31344 
444 1 444 0.679865 0.0799545 0 1.50322 
445 1 445 0.679777 0.119939 0 1.19742 
446 1 446 0.679711 0.159923 0 0.6002 
447 1 447 0.679664 0.199913 0 0.540423 
448 1 448 0.679628 0.239903 0 1.82327 
449 1 449 0.679594 0.2799 0 3.29544 
450 1 450 0.679564 0.319899 0 3.72545 
451 1 451 0.679535 0.359913 0 3.06765 
452 1 452 0.67952 0.399931 0 2.17755 
453 1 453 0.679513 0.439958 0 1.87511 
454 1 454 0.679513 0.479981 0 2.39242 
455 1 455 0.679517 0.519999 0 3.2321 
456 1 456 0.679535 0.560012 0 3.78474 
457 1 457 0.679555 0.600021 0 3.93803 
458 1 458 0.679575 0.640032 0 3.91997 
459 1 459 0.679591 0.680044 0 4.73499 
460 1 460 0.679594 0.720053 0 6.54017 
461 1 461 0.679592 0.760061 0 8.5438 
462 1 462 0.679592 0.800067 0 10.1791 
463 1 463 0.679585 0.840071 0 10.8716 
464 1 464 0.679574 0.880085 0 10.459 
465 1 465 0.679571 0.920101 0 9.7696 
466 1 466 0.679584 0.960134 0 9.37596 
467 1 467 0.679603 1.00017 0 9.23184 
468 1 468 0.72 0 0 0 
469 1 469 0.719929 0.039976 0 1.37635 
470 1 470 0.719842 0.0799617 0 1.59685 
471 1 471 0.719756 0.119946 0 1.46383 
472 1 472 0.719687 0.159927 0 1.28806 
473 1 473 0.719635 0.199913 0 1.56598 
474 1 474 0.719595 0.239899 0 2.8527 
475 1 475 0.719555 0.279894 0 4.14546 
476 1 476 0.719516 0.31989 0 4.36022 
477 1 477 0.719476 0.359899 0 3.56023 
478 1 478 0.719452 0.399912 0 2.59002 
479 1 479 0.719442 0.439936 0 2.25476 
480 1 480 0.719445 0.479955 0 2.93186 
481 1 481 0.719454 0.519971 0 3.9988 
482 1 482 0.719472 0.559983 0 4.6862 
483 1 483 0.719486 0.599992 0 4.84449 
484 1 484 0.7195 0.640004 0 4.65378 
485 1 485 0.719514 0.680018 0 5.21026 
486 1 486 0.719522 0.720031 0 6.92841 
487 1 487 0.719524 0.760042 0 8.92084 
488 1 488 0.719528 0.800051 0 10.5691 
489 1 489 0.71952 0.84006 0 11.4097 
490 1 490 0.719506 0.880076 0 11.0702 
491 1 491 0.719496 0.920093 0 10.3493 
492 1 492 0.719495 0.960127 0 9.23068 
493 1 493 0.719509 1.00017 0 8.39035 
494 1 494 0.76 0 0 0 
495 1 495 0.759915 0.0399814 0 1.07957 
496 1 496 0.759826 0.0799686 0 1.37511 
497 1 497 0.759743 0.119952 0 1.61642 
498 1 498 0.759671 0.159931 0 2.01216 
499 1 499 0.759612 0.199914 0 2.68213 
500 1 500 0.759565 0.2399 0 3.84032 
501 1 501 0.75952 0.279891 0 4.78163 
502 1 502 0.759473 0.319885 0 4.85685 
503 1 503 0.759422 0.35989 0 4.18162 
504 1 504 0.759389 0.399897 0 3.30449 
505 1 505 0.759374 0.439915 0 2.96261 
506 1 506 0.759378 0.47993 0 3.74254 
507 1 507 0.759389 0.519943 0 4.94515 
508 1 508 0.75941 0.559955 0 5.74232 
509 1 509 0.759425 0.599964 0 6.00603 
510 1 510 0.759438 0.639979 0 5.80672 
511 1 511 0.759449 0.679995 0 6.13582 
512 1 512 0.759456 0.720011 0 7.57092 
513 1 513 0.759459 0.760026 0 9.3453 
514 1 514 0.759461 0.800039 0 10.9014 
515 1 515 0.759451 0.840053 0 11.8929 
516 1 516 0.759435 0.880072 0 11.7525 
517 1 517 0.759421 0.920091 0 11.1146 
518 1 518 0.759407 0.960124 0 9.36778 
519 1 519 0.759415 1.00016 0 7.89236 
520 1 520 0.8 0 0 0 
521 1 521 0.799902 0.0399865 0 0.603582 
522 1 522 0.799812 0.0799742 0 1.03135 
523 1 523 0.799732 0.119957 0 1.74366 
524 1 524 0.799658 0.159936 0 2.71142 
525 1 525 0.799592 0.199918 0 3.70096 
526 1 526 0.799539 0.239902 0 4.60769 
527 1 527 0.799486 0.279893 0 5.07969 
528 1 528 0.799431 0.319885 0 4.97953 
529 1 529 0.799373 0.359885 0 4.53888 
530 1 530 0.799329 0.399886 0 3.94974 
531 1 531 0.799307 0.439897 0 3.72903 
532 1 532 0.799309 0.479907 0 4.60223 
533 1 533 0.79932 0.519918 0 5.86507 
534 1 534 0.799337 0.55993 0 6.75086 
535 1 535 0.799344 0.59994 0 7.22876 
536 1 536 0.79935 0.639957 0 7.21368 
537 1 537 0.799359 0.679974 0 7.41889 
538 1 538 0.799371 0.719994 0 8.47921 
539 1 539 0.79938 0.760013 0 9.88825 
540 1 540 0.799386 0.800031 0 11.1965 
541 1 541 0.799376 0.840051 0 12.2182 
542 1 542 0.79936 0.880072 0 12.2776 
543 1 543 0.799343 0.920094 0 11.824 
544 1 544 0.799319 0.960126 0 9.77689 
545 1 545 0.79932 1.00017 0 7.91085 
546 1 546 0.84 0 0 0 
547 1 547 0.839898 0.0399903 0 0.12884 
548 1 548 0.83981 0.0799777 0 0.751276 
549 1 549 0.839734 0.119961 0 1.93056 
550 1 550 0.839656 0.15994 0 3.36127 
551 1 551 0.839582 0.199922 0 4.51152 
552 1 552 0.839521 0.239906 0 5.01231 
553 1 553 0.83946 0.279896 0 4.98265 
554 1 554 0.839397 0.319887 0 4.81485 
555 1 555 0.839331 0.359882 0 4.75762 
556 1 556 0.839279 0.399878 0 4.62129 
557 1 557 0.839248 0.439881 0 4.6012 
558 1 558 0.839244 0.479885 0 5.43908 
559 1 559 0.839253 0.519894 0 6.6067 
560 1 560 0.839269 0.559905 0 7.56952 
561 1 561 0.839276 0.599918 0 8.32439 
562 1 562 0.839281 0.639937 0 8.57948 
563 1 563 0.839286 0.679955 0 8.72554 
564 1 564 0.839298 0.71998 0 9.34379 
565 1 565 0.839305 0.760002 0 10.2739 
566 1 566 0.839309 0.800027 0 11.2501 
567 1 567 0.839301 0.840052 0 12.2957 
568 1 568 0.839285 0.880076 0 12.6438 
569 1 569 0.839268 0.920103 0 12.4973 
570 1 570 0.839237 0.960132 0 10.525 
571 1 571 0.839232 1.00017 0 8.56292 
572 1 572 0.88 0 0 0 
573 1 573 0.879897 0.0399923 0 -0.163366 
574 1 574 0.879811 0.079979 0 0.700772 
575 1 575 0.879737 0.119962 0 2.23683 
576 1 576 0.879657 0.159944 0 3.92818 
577 1 577 0.879577 0.199926 0 5.07958 
578 1 578 0.879508 0.239911 0 5.13529 
579 1 579 0.879438 0.279901 0 4.64813 
580 1 580 0.879368 0.319891 0 4.45939 
581 1 581 0.879296 0.359882 0 4.78636 
582 1 582 0.879236 0.399873 0 5.12786 
583 1 583 0.879195 0.439868 0 5.35317 
584 1 584 0.879184 0.479868 0 6.10375 
585 1 585 0.879186 0.519874 0 7.07612 
586 1 586 0.879194 0.559885 0 8.03156 
587 1 587 0.879193 0.599899 0 9.00629 
588 1 588 0.879192 0.63992 0 9.55686 
589 1 589 0.879194 0.679939 0 9.73441 
590 1 590 0.879208 0.719968 0 9.96377 
591 1 591 0.87922 0.759994 0 10.4441 
592 1 592 0.879226 0.800024 0 11.0587 
593 1 593 0.879221 0.840054 0 12.0531 
594 1 594 0.879207 0.880082 0 12.6908 
595 1 595 0.879191 0.920114 0 12.9365 
596 1 596 0.879158 0.960142 0 11.4053 
597 1 597 0.879148 1.00018 0 9.64657 
598 1 598 0.92 0 0 0 
599 1 599 0.919905 0.0399926 0 -0.1502 
600 1 600 0.919823 0.0799785 0 0.966722 
601 1 601 0.919749 0.119962 0 2.67428 
602 1 602 0.919666 0.159946 0 4.38189 
603 1 603 0.91958 0.199929 0 5.36355 
604 1 604 0.919502 0.239916 0 5.00441 
605 1 605 0.919424 0.279905 0 4.19599 
606 1 606 0.919348 0.319895 0 4.04691 
607 1 607 0.919273 0.359883 0 4.73051 
608 1 608 0.919206 0.399869 0 5.56819 
609 1 609 0.919155 0.439857 0 6.08007 
610 1 610 0.919134 0.479852 0 6.67069 
611 1 611 0.919126 0.519855 0 7.31778 
612 1 612 0.919129 0.559866 0 8.14354 
613 1 613 0.919128 0.599882 0 9.25397 
614 1 614 0.919127 0.639903 0 10.1038 
615 1 615 0.919125 0.679925 0 10.3946 
616 1 616 0.919133 0.719955 0 10.3176 
617 1 617 0.919141 0.759986 0 10.4119 
618 1 618 0.919144 0.800021 0 10.7036 
619 1 619 0.919142 0.840057 0 11.6337 
620 1 620 0.919129 0.880089 0 12.5517 
621 1 621 0.919116 0.920125 0 13.2154 
622 1 622 0.919085 0.960154 0 12.4094 
623 1 623 0.919074 1.00019 0 11.1138 
624 1 624 0.96 0 0 0 
625 1 625 0.959913 0.0399915 0 0.124828 
626 1 626 0.959832 0.0799768 0 1.50011 
627 1 627 0.959756 0.119961 0 3.22625 
628 1 628 0.959672 0.159947 0 4.72623 
629 1 629 0.959583 0.199932 0 5.38055 
630 1 630 0.959498 0.23992 0 4.68927 
631 1 631 0.959412 0.279909 0 3.76734 
632 1 632 0.959331 0.319899 0 3.7575 
633 1 633 0.959255 0.359884 0 4.73699 
634 1 634 0.959184 0.399868 0 5.97803 
635 1 635 0.959123 0.439851 0 6.72412 
636 1 636 0.959089 0.479842 0 7.11296 
637 1 637 0.959068 0.519842 0 7.41303 
638 1 638 0.959059 0.559852 0 8.03081 
639 1 639 0.959048 0.599868 0 9.13031 
640 1 640 0.95904 0.639889 0 10.1982 
641 1 641 0.959034 0.679912 0 10.6897 
642 1 642 0.95904 0.719944 0 10.4902 
643 1 643 0.95905 0.759978 0 10.3198 
644 1 644 0.959055 0.800018 0 10.3311 
645 1 645 0.959057 0.840059 0 11.1611 
646 1 646 0.959047 0.880096 0 12.3032 
647 1 647 0.959039 0.920135 0 13.3254 
648 1 648 0.959013 0.960165 0 13.3071 
649 1 649 0.959002 1.0002 0 12.583 
650 1 650 1 0 0 0 
651 1 651 0.999924 0.0399892 0 0.617466 
652 1 652 0.999846 0.079974 0 2.20659 
653 1 653 0.999766 0.119959 0 3.78422 
654 1 654 0.999679 0.159947 0 4.92134 
655 1 655 0.999587 0.199934 0 5.21219 
656 1 656 0.999495 0.239922 0 4.34021 
657 1 657 0.999404 0.279911 0 3.45751 
658 1 658 0.99932 0.3199 0 3.56226 
659 1 659 0.999242 0.359884 0 4.68174 
660 1 660 0.999169 0.399866 0 6.21531 
661 1 661 0.999099 0.439846 0 7.23085 
662 1 662 0.999052 0.479834 0 7.51907 
663 1 663 0.999017 0.519831 0 7.55394 
664 1 664 0.998999 0.559839 0 7.96976 
665 1 665 0.998986 0.599855 0 8.99977 
666 1 666 0.998978 0.639876 0 10.2015 
667 1 667 0.998968 0.679901 0 10.8886 
668 1 668 0.998965 0.719934 0 10.7362 
669 1 669 0.998968 0.759971 0 10.4934 
670 1 670 0.998968 0.800014 0 10.3088 
671 1 671 0.998973 0.840059 0 10.9266 
672 1 672 0.998967 0.8801 0 12.1 
673 1 673 0.998962 0.920142 0 13.313 
674 1 674 0.998944 0.960175 0 13.9183 
675 1 675 0.998934 1.00021 0 13.7015 
676 1 676 1.04 0 0 0 
677 1 677 1.03993 0.0399864 0 1.08172 
678 1 678 1.03985 0.0799709 0 2.82969 
679 1 679 1.03977 0.119956 0 4.22253 
680 1 680 1.03968 0.159945 0 4.92891 
681 1 681 1.03958 0.199933 0 4.82778 
682 1 682 1.03949 0.239923 0 3.90558 
683 1 683 1.03939 0.279912 0 3.21481 
684 1 684 1.03931 0.319902 0 3.46432 
685 1 685 1.03923 0.359885 0 4.65031 
686 1 686 1.03915 0.399868 0 6.38118 
687 1 687 1.03908 0.439846 0 7.67006 
688 1 688 1.03901 0.479833 0 7.98654 
689 1 689 1.03897 0.519827 0 7.90375 
690 1 690 1.03893 0.559833 0 8.14354 
691 1 691 1.03891 0.599848 0 9.03228 
692 1 692 1.03889 0.639868 0 10.3237 
693 1 693 1.03888 0.679895 0 11.2569 
694 1 694 1.03887 0.719926 0 11.2597 
695 1 695 1.03887 0.759966 0 10.9704 
696 1 696 1.03887 0.80001 0 10.6237 
697 1 697 1.03888 0.840058 0 11.0013 
698 1 698 1.03888 0.880102 0 12.0221 
699 1 699 1.03888 0.920146 0 13.2396 
700 1 700 1.03887 0.960181 0 14.281 
701 1 701 1.03886 1.00022 0 14.4717 
702 1 702 1.08 0 0 0 
703 1 703 1.07993 0.0399831 0 1.43615 
704 1 704 1.07985 0.0799671 0 3.20233 
705 1 705 1.07976 0.119953 0 4.32792 
706 1 706 1.07967 0.159942 0 4.61499 
707 1 707 1.07957 0.19993 0 4.23148 
708 1 708 1.07947 0.23992 0 3.43586 
709 1 709 1.07938 0.279909 0 3.05837 
710 1 710 1.07929 0.319899 0 3.45775 
711 1 711 1.07921 0.359883 0 4.61799 
712 1 712 1.07913 0.399868 0 6.42279 
713 1 713 1.07905 0.439847 0 8.00838 
714 1 714 1.07898 0.479834 0 8.56468 
715 1 715 1.07892 0.519825 0 8.59198 
716 1 716 1.07888 0.55983 0 8.74008 
717 1 717 1.07885 0.599843 0 9.40312 
718 1 718 1.07883 0.639863 0 10.6046 
719 1 719 1.07881 0.679891 0 11.6592 
720 1 720 1.0788 0.719921 0 11.8835 
721 1 721 1.07879 0.759962 0 11.6492 
722 1 722 1.07879 0.800007 0 11.2141 
723 1 723 1.07879 0.840055 0 11.3303 
724 1 724 1.0788 0.880102 0 12.0031 
725 1 725 1.0788 0.920146 0 12.9791 
726 1 726 1.07879 0.960185 0 14.0767 
727 1 727 1.07879 1.00022 0 14.4247 
728 1 728 1.12 0 0 0 
729 1 729 1.11993 0.0399801 0 1.49636 
730 1 730 1.11984 0.0799635 0 3.15743 
731 1 731 1.11975 0.119949 0 4.07191 
732 1 732 1.11966 0.159937 0 4.05721 
733 1 733 1.11956 0.199925 0 3.51903 
734 1 734 1.11945 0.239917 0 2.96303 
735 1 735 1.11935 0.279906 0 2.94126 
736 1 736 1.11926 0.319897 0 3.48689 
737 1 737 1.11918 0.359883 0 4.60789 
738 1 738 1.1191 0.399872 0 6.41148 
739 1 739 1.11902 0.439854 0 8.21434 
740 1 740 1.11894 0.479841 0 9.01566 
741 1 741 1.11887 0.519832 0 9.2073 
742 1 742 1.11881 0.559834 0 9.30623 
743 1 743 1.11877 0.599846 0 9.72498 
744 1 744 1.11874 0.639864 0 10.7584 
745 1 745 1.11872 0.679892 0 11.8569 
746 1 746 1.11871 0.719921 0 12.3505 
747 1 747 1.1187 0.759962 0 12.2585 
748 1 748 1.11869 0.800005 0 11.7762 
749 1 749 1.1187 0.840053 0 11.6169 
750 1 750 1.11871 0.880101 0 11.86 
751 1 751 1.11872 0.920145 0 12.5698 
752 1 752 1.11871 0.960187 0 13.5474 
753 1 753 1.11871 1.00023 0 13.8627 
754 1 754 1.16 0 0 0 
755 1 755 1.15992 0.0399772 0 1.28473 
756 1 756 1.15984 0.0799596 0 2.63339 
757 1 757 1.15974 0.119944 0 3.31091 
758 1 758 1.15964 0.15993 0 3.16209 
759 1 759 1.15953 0.199917 0 2.68951 
760 1 760 1.15943 0.239909 0 2.49841 
761 1 761 1.15932 0.279898 0 2.85123 
762 1 762 1.15923 0.31989 0 3.50978 
763 1 763 1.15915 0.359879 0 4.51892 
764 1 764 1.15907 0.399872 0 6.20529 
765 1 765 1.15899 0.439858 0 8.1876 
766 1 766 1.1589 0.479848 0 9.34003 
767 1 767 1.15882 0.519839 0 9.81134 
768 1 768 1.15876 0.55984 0 9.90277 
769 1 769 1.15871 0.599849 0 10.0303 
770 1 770 1.15868 0.639867 0 10.7995 
771 1 771 1.15866 0.679894 0 11.8104 
772 1 772 1.15863 0.719923 0 12.4985 
773 1 773 1.15861 0.759963 0 12.6048 
774 1 774 1.1586 0.800004 0 12.2424 
775 1 775 1.15861 0.840052 0 11.9701 
776 1 776 1.15862 0.8801 0 11.6938 
777 1 777 1.15863 0.920145 0 11.9429 
778 1 778 1.15862 0.96019 0 12.6322 
779 1 779 1.15862 1.00023 0 12.8072 
780 1 780 1.2 0 0 0 
781 1 781 1.19991 0.0399749 0 0.812012 
782 1 782 1.19982 0.0799561 0 1.73375 
783 1 783 1.19972 0.119939 0 2.23746 
784 1 784 1.19962 0.159924 0 2.12488 
785 1 785 1.19951 0.199911 0 1.87999 
786 1 786 1.19939 0.239902 0 2.09487 
787 1 787 1.19929 0.279891 0 2.7833 
788 1 788 1.19919 0.319884 0 3.55172 
789 1 789 1.1991 0.359876 0 4.46987 
790 1 790 1.19903 0.399873 0 5.93257 
791 1 791 1.19894 0.439864 0 7.8768 
792 1 792 1.19886 0.479857 0 9.23266 
793 1 793 1.19877 0.51985 0 9.93198 
794 1 794 1.19869 0.559848 0 10.0423 
795 1 795 1.19863 0.599857 0 9.9269 
796 1 796 1.19859 0.639874 0 10.4796 
797 1 797 1.19856 0.6799 0 11.4252 
798 1 798 1.19854 0.719929 0 12.3407 
799 1 799 1.19851 0.759966 0 12.7356 