ITEM: TIMESTEP
0
ITEM: NUMBER OF ATOMS
6875
ITEM: BOX BOUNDS sm sm sm
0 4
0 2
0 0
ITEM: ATOMS id type tag x y z damage s11 s22 s33 s12 s13 s23 vx T ienergy 
1 1 1 0.0199961 0.0199974 0 0 -0.0670186 -0.064921 -0.0422805 -0.0236882 0 0 -0.193867 0 0 
2 1 2 0.0199913 0.0599928 0 0 -0.123471 -0.0776915 -0.0644716 -0.0340129 0 0 -0.676595 0 0 
3 1 3 0.0199897 0.0999905 0 0 -0.14947 -0.0848668 -0.0751144 -0.0436542 0 0 -0.343504 0 0 
4 1 4 0.0199904 0.139988 0 0 -0.154171 -0.0814269 -0.0755206 -0.0477867 0 0 0.088801 0 0 
5 1 5 0.0199895 0.179988 0 0 -0.161576 -0.0798609 -0.0773924 -0.0562728 0 0 0.0609263 0 0 
6 1 6 0.0199886 0.219988 0 0 -0.173271 -0.076195 -0.0799678 -0.0531031 0 0 0.228373 0 0 
7 1 7 0.0199867 0.259989 0 0 -0.197227 -0.0815871 -0.0893826 -0.0525269 0 0 0.362881 0 0 
8 1 8 0.0199846 0.299991 0 0 -0.227802 -0.0927309 -0.102768 -0.039706 0 0 0.0733401 0 0 
9 1 9 0.0199827 0.339994 0 0 -0.253808 -0.103351 -0.114522 -0.0315099 0 0 0.119635 0 0 
10 1 10 0.0199807 0.379997 0 0 -0.28227 -0.112474 -0.126586 -0.0175036 0 0 -0.128615 0 0 
11 1 11 0.0199795 0.42 0 0 -0.300286 -0.131431 -0.138457 -0.00314233 0 0 -0.399142 0 0 
12 1 12 0.0199787 0.460001 0 0 -0.313836 -0.13546 -0.144104 4.78673e-05 0 0 -0.145617 0 0 
13 1 13 0.0199765 0.500003 0 0 -0.331848 -0.155772 -0.156413 0.0104624 0 0 -0.36952 0 0 
14 1 14 0.019974 0.540002 0 0 -0.335066 -0.157042 -0.157857 0.00740472 0 0 -0.438745 0 0 
15 1 15 0.0199675 0.580003 0 0 -0.357504 -0.165854 -0.167897 0.00733022 0 0 -0.925614 0 0 
16 1 16 0.0199615 0.620004 0 0 -0.376614 -0.163314 -0.173222 0.0141381 0 0 -1.59884 0 0 
17 1 17 0.0199574 0.660007 0 0 -0.401454 -0.173195 -0.18438 0.0239235 0 0 -1.97665 0 0 
18 1 18 0.0199575 0.70001 0 0 -0.424227 -0.170133 -0.190715 0.0392034 0 0 -1.85088 0 0 
19 1 19 0.0199596 0.740015 0 0 -0.439987 -0.186096 -0.20091 0.0629447 0 0 -1.65072 0 0 
20 1 20 0.0199626 0.780019 0 0 -0.451366 -0.178833 -0.202233 0.0737293 0 0 -1.19973 0 0 
21 1 21 0.0199642 0.820024 0 0 -0.461444 -0.20551 -0.214047 0.103879 0 0 -1.48744 0 0 
22 1 22 0.0199672 0.860026 0 0 -0.455425 -0.176573 -0.202811 0.103502 0 0 -0.644783 0 0 
23 1 23 0.0199651 0.900032 0 0 -0.503182 -0.226444 -0.234201 0.132591 0 0 -1.06101 0 0 
24 1 24 0.0199645 0.940036 0 0 -0.527026 -0.186049 -0.228886 0.139185 0 0 -0.315856 0 0 
25 1 25 0.0199446 0.980057 0 0 -0.742237 -0.19916 -0.312339 0.160823 0 0 -0.66958 0 0 
26 1 26 0.0599927 0.0199935 0 0 -0.0809341 -0.118388 -0.0638863 -0.037875 0 0 -0.0288475 0 0 
27 1 27 0.0599824 0.0599824 0 0 -0.111959 -0.103333 -0.0690075 -0.0271337 0 0 -0.797939 0 0 
28 1 28 0.0599766 0.0999762 0 0 -0.127928 -0.0934877 -0.070969 -0.0270292 0 0 -0.434243 0 0 
29 1 29 0.0599744 0.139971 0 0 -0.140021 -0.0905549 -0.0739051 -0.0230291 0 0 -0.104145 0 0 
30 1 30 0.0599705 0.179969 0 0 -0.158777 -0.0825207 -0.0773489 -0.0377868 0 0 -0.078853 0 0 
31 1 31 0.0599671 0.219969 0 0 -0.178701 -0.0732681 -0.080774 -0.0298753 0 0 0.315996 0 0 
32 1 32 0.0599615 0.259972 0 0 -0.201532 -0.070584 -0.0872385 -0.0427552 0 0 0.655961 0 0 
33 1 33 0.0599553 0.299977 0 0 -0.227476 -0.0702336 -0.0954479 -0.0296074 0 0 0.24103 0 0 
34 1 34 0.0599501 0.339983 0 0 -0.259647 -0.0823542 -0.109663 -0.0317921 0 0 0.710517 0 0 
35 1 35 0.0599445 0.37999 0 0 -0.283982 -0.0826765 -0.117575 -0.0201405 0 0 0.513554 0 0 
36 1 36 0.0599418 0.419998 0 0 -0.308927 -0.110771 -0.134602 -0.00327289 0 0 -0.0197421 0 0 
37 1 37 0.0599406 0.460003 0 0 -0.314163 -0.112704 -0.136907 -0.00287182 0 0 0.457948 0 0 
38 1 38 0.0599397 0.500007 0 0 -0.324049 -0.139428 -0.148664 0.0170836 0 0 -0.0143139 0 0 
39 1 39 0.0599426 0.540009 0 0 -0.32802 -0.143987 -0.151403 0.0137726 0 0 0.7854 0 0 
40 1 40 0.0599423 0.580011 0 0 -0.353238 -0.151504 -0.161918 0.0126141 0 0 1.56106 0 0 
41 1 41 0.0599417 0.620015 0 0 -0.37851 -0.143114 -0.167342 0.0212014 0 0 2.30601 0 0 
42 1 42 0.0599375 0.660022 0 0 -0.414269 -0.145537 -0.17961 0.0242772 0 0 2.48521 0 0 
43 1 43 0.0599301 0.700032 0 0 -0.436168 -0.131593 -0.182167 0.0391026 0 0 2.12877 0 0 
44 1 44 0.0599239 0.740044 0 0 -0.454932 -0.143263 -0.191947 0.0651148 0 0 1.3387 0 0 
45 1 45 0.0599187 0.780057 0 0 -0.451157 -0.130126 -0.186511 0.0668224 0 0 1.44075 0 0 
46 1 46 0.0599148 0.820069 0 0 -0.473661 -0.161755 -0.203908 0.106939 0 0 0.265786 0 0 
47 1 47 0.0599121 0.86008 0 0 -0.467632 -0.136044 -0.193712 0.0928095 0 0 0.526022 0 0 
48 1 48 0.0599042 0.900093 0 0 -0.494001 -0.158252 -0.209316 0.128195 0 0 -0.832988 0 0 
49 1 49 0.0598895 0.940113 0 0 -0.560832 -0.0860106 -0.207587 0.107174 0 0 -0.737166 0 0 
50 1 50 0.0598437 0.980151 0 0 -0.585356 0.00368714 -0.186644 0.0343107 0 0 -1.69844 0 0 
51 1 51 0.099988 0.0199924 0 0 -0.0795133 -0.132206 -0.0678744 -0.0478904 0 0 -0.102491 0 0 
52 1 52 0.0999707 0.0599796 0 0 -0.0920479 -0.106918 -0.0637772 -0.0220009 0 0 -1.11361 0 0 
53 1 53 0.0999624 0.0999712 0 0 -0.109065 -0.0947106 -0.0653136 -0.0196587 0 0 -0.657014 0 0 
54 1 54 0.0999578 0.139965 0 0 -0.136946 -0.0982686 -0.0753972 -0.0123021 0 0 -0.418039 0 0 
55 1 55 0.0999508 0.179961 0 0 -0.154567 -0.0817914 -0.0757676 -0.0304139 0 0 -0.035083 0 0 
56 1 56 0.0999423 0.219962 0 0 -0.18184 -0.0749305 -0.082317 -0.0201769 0 0 0.47163 0 0 
57 1 57 0.099933 0.259965 0 0 -0.208289 -0.0732285 -0.0902591 -0.0353108 0 0 1.04029 0 0 
58 1 58 0.0999223 0.299971 0 0 -0.228381 -0.0595355 -0.0923098 -0.0234642 0 0 0.737019 0 0 
59 1 59 0.099913 0.339979 0 0 -0.257145 -0.0694239 -0.104714 -0.028145 0 0 0.88358 0 0 
60 1 60 0.0999035 0.379988 0 0 -0.269952 -0.0614823 -0.106273 -0.0156527 0 0 0.386371 0 0 
61 1 61 0.0998989 0.419998 0 0 -0.288943 -0.0788118 -0.117929 7.36865e-05 0 0 -0.408054 0 0 
62 1 62 0.099896 0.460007 0 0 -0.296605 -0.0848223 -0.12232 -7.20524e-05 0 0 -0.0794712 0 0 
63 1 63 0.0998935 0.500015 0 0 -0.308763 -0.113305 -0.135369 0.0207711 0 0 -0.802385 0 0 
64 1 64 0.0998901 0.54002 0 0 -0.318023 -0.115839 -0.139154 0.0107187 0 0 -0.0813741 0 0 
65 1 65 0.0998775 0.580025 0 0 -0.33907 -0.127299 -0.149592 0.00946717 0 0 -0.601866 0 0 
66 1 66 0.0998632 0.620032 0 0 -0.352673 -0.112607 -0.149244 0.0171569 0 0 -1.15027 0 0 
67 1 67 0.0998499 0.660043 0 0 -0.378598 -0.101685 -0.154062 0.016442 0 0 -1.77535 0 0 
68 1 68 0.0998402 0.700057 0 0 -0.404554 -0.0891673 -0.15838 0.0335366 0 0 -2.26899 0 0 
69 1 69 0.0998376 0.740074 0 0 -0.432639 -0.0893261 -0.167453 0.0567355 0 0 -2.56576 0 0 
70 1 70 0.0998379 0.780093 0 0 -0.441045 -0.0861187 -0.169124 0.0659743 0 0 -1.93691 0 0 
71 1 71 0.0998391 0.820113 0 0 -0.449973 -0.0948894 -0.174809 0.0954301 0 0 -1.87048 0 0 
72 1 72 0.0998383 0.860132 0 0 -0.463943 -0.0895899 -0.177602 0.0895553 0 0 -1.29457 0 0 
73 1 73 0.0998293 0.900155 0 0 -0.501997 -0.0861937 -0.188729 0.109282 0 0 -2.27843 0 0 
74 1 74 0.0998044 0.940185 0 0 -0.515796 -0.0185875 -0.171442 0.0426235 0 0 -2.00069 0 0 
75 1 75 0.0997545 0.980221 0 0 -0.525644 -0.0309928 -0.178596 0.0208857 0 0 -2.71961 0 0 
76 1 76 0.139987 0.0199931 0 0 -0.0690247 -0.120779 -0.0608428 -0.0549369 0 0 0.222008 0 0 
77 1 77 0.139968 0.0599801 0 0 -0.089267 -0.111697 -0.0644173 -0.0242698 0 0 -0.57919 0 0 
78 1 78 0.139955 0.0999705 0 0 -0.110148 -0.10102 -0.0676928 -0.024165 0 0 -0.432652 0 0 
79 1 79 0.139944 0.139964 0 0 -0.134818 -0.09588 -0.0739538 -0.0116353 0 0 -0.414252 0 0 
80 1 80 0.139934 0.179961 0 0 -0.148921 -0.0790009 -0.073062 -0.0266475 0 0 0.360676 0 0 
81 1 81 0.139921 0.219961 0 0 -0.168642 -0.0701218 -0.0765397 -0.0191022 0 0 0.867575 0 0 
82 1 82 0.139907 0.259964 0 0 -0.188692 -0.0606294 -0.0799281 -0.0290104 0 0 1.14917 0 0 
83 1 83 0.139892 0.29997 0 0 -0.211276 -0.0497089 -0.0836712 -0.0218828 0 0 0.966927 0 0 
84 1 84 0.139879 0.339979 0 0 -0.241289 -0.0508789 -0.0936773 -0.0227487 0 0 0.936721 0 0 
85 1 85 0.139867 0.37999 0 0 -0.263069 -0.0510295 -0.100711 -0.0100796 0 0 0.572929 0 0 
86 1 86 0.13986 0.420002 0 0 -0.290733 -0.0673679 -0.114831 0.00580845 0 0 -0.0645917 0 0 
87 1 87 0.139857 0.460012 0 0 -0.299716 -0.0729309 -0.1195 0.00678185 0 0 0.0995491 0 0 
88 1 88 0.139856 0.500022 0 0 -0.316468 -0.102318 -0.134315 0.024766 0 0 -0.352925 0 0 
89 1 89 0.139857 0.54003 0 0 -0.322296 -0.0947113 -0.133742 0.00814794 0 0 1.02173 0 0 
90 1 90 0.139851 0.580039 0 0 -0.34596 -0.111307 -0.146669 0.00521396 0 0 1.524 0 0 
91 1 91 0.139843 0.620049 0 0 -0.374299 -0.104528 -0.153596 0.00543063 0 0 2.37357 0 0 
92 1 92 0.139827 0.660063 0 0 -0.407807 -0.0951314 -0.16134 0.00409133 0 0 2.23104 0 0 
93 1 93 0.13981 0.70008 0 0 -0.428237 -0.0803219 -0.163148 0.0214977 0 0 1.16932 0 0 
94 1 94 0.139796 0.740102 0 0 -0.446864 -0.0634618 -0.163715 0.0421049 0 0 0.337208 0 0 
95 1 95 0.139787 0.780128 0 0 -0.460426 -0.0513184 -0.164173 0.0593928 0 0 -0.0255983 0 0 
96 1 96 0.139782 0.820155 0 0 -0.469046 -0.0572714 -0.168852 0.0868389 0 0 -0.397957 0 0 
97 1 97 0.139775 0.860183 0 0 -0.466418 -0.0266244 -0.158163 0.0778491 0 0 -0.217074 0 0 
98 1 98 0.139759 0.900215 0 0 -0.485456 -0.034462 -0.166792 0.0872713 0 0 -2.03627 0 0 
99 1 99 0.139727 0.940248 0 0 -0.482331 -0.00225883 -0.155456 0.029399 0 0 -2.0218 0 0 
100 1 100 0.139676 0.980284 0 0 -0.476085 -0.00387029 -0.153966 0.0208009 0 0 -3.53114 0 0 
101 1 101 0.179984 0.0199939 0 0 -0.0519478 -0.102494 -0.0494923 -0.0617836 0 0 0.257726 0 0 
102 1 102 0.17996 0.059982 0 0 -0.0728778 -0.103938 -0.0566699 -0.0340344 0 0 -0.224473 0 0 
103 1 103 0.179943 0.0999725 0 0 -0.0982288 -0.0932 -0.0613634 -0.0292102 0 0 -0.0863162 0 0 
104 1 104 0.179929 0.139967 0 0 -0.123927 -0.0830135 -0.0663353 -0.0166932 0 0 -0.193244 0 0 
105 1 105 0.179915 0.179965 0 0 -0.146604 -0.072915 -0.0703668 -0.0265345 0 0 0.447752 0 0 
106 1 106 0.179898 0.219965 0 0 -0.174868 -0.0747732 -0.080026 -0.0221508 0 0 0.65428 0 0 
107 1 107 0.17988 0.259968 0 0 -0.194379 -0.0576476 -0.0807923 -0.0285607 0 0 0.967138 0 0 
108 1 108 0.179861 0.299975 0 0 -0.220892 -0.0577777 -0.0893453 -0.0272825 0 0 1.16295 0 0 
109 1 109 0.179842 0.339984 0 0 -0.240299 -0.0426213 -0.090712 -0.025643 0 0 0.749916 0 0 
110 1 110 0.179827 0.379996 0 0 -0.253003 -0.041073 -0.0942868 -0.011864 0 0 0.212391 0 0 
111 1 111 0.179817 0.420009 0 0 -0.272924 -0.0538963 -0.10479 0.000682224 0 0 -0.449524 0 0 
112 1 112 0.179812 0.460021 0 0 -0.278269 -0.0546716 -0.106755 0.0106349 0 0 -0.917138 0 0 
113 1 113 0.179809 0.500032 0 0 -0.299185 -0.0790865 -0.121307 0.0184796 0 0 -1.02075 0 0 
114 1 114 0.179801 0.540043 0 0 -0.321291 -0.0778167 -0.127994 0.00545302 0 0 -0.354183 0 0 
115 1 115 0.179784 0.580055 0 0 -0.330696 -0.0845317 -0.133171 0.00156134 0 0 -1.08762 0 0 
116 1 116 0.179762 0.620068 0 0 -0.34018 -0.0704006 -0.131681 -0.00600328 0 0 -1.35206 0 0 
117 1 117 0.179738 0.660084 0 0 -0.358652 -0.0542494 -0.132425 -0.0038125 0 0 -2.52354 0 0 
118 1 118 0.179719 0.700105 0 0 -0.380041 -0.0364815 -0.13359 0.0143924 0 0 -3.34886 0 0 
119 1 119 0.179707 0.74013 0 0 -0.408822 -0.020752 -0.137778 0.0332332 0 0 -3.45993 0 0 
120 1 120 0.179701 0.78016 0 0 -0.424855 0.00279561 -0.135367 0.0536882 0 0 -3.17774 0 0 
121 1 121 0.179699 0.820194 0 0 -0.456986 -0.00108728 -0.14693 0.075863 0 0 -2.82006 0 0 
122 1 122 0.179693 0.86023 0 0 -0.467383 0.0166305 -0.144577 0.0664003 0 0 -2.16974 0 0 
123 1 123 0.179678 0.900269 0 0 -0.470936 0.01536 -0.146125 0.0720669 0 0 -3.15365 0 0 
124 1 124 0.179648 0.940307 0 0 -0.463593 0.0185026 -0.142778 0.0186562 0 0 -2.84164 0 0 
125 1 125 0.179602 0.980343 0 0 -0.437263 -0.000372453 -0.140381 0.0223068 0 0 -4.51035 0 0 
126 1 126 0.219986 0.0199943 0 0 -0.0443137 -0.0909407 -0.0433415 -0.0627339 0 0 0.53405 0 0 
127 1 127 0.219959 0.0599841 0 0 -0.0637659 -0.0896613 -0.0491661 -0.0443076 0 0 0.658762 0 0 
128 1 128 0.219936 0.0999752 0 0 -0.0985538 -0.0915731 -0.06094 -0.0381911 0 0 0.47948 0 0 
129 1 129 0.219916 0.13997 0 0 -0.127884 -0.0766547 -0.065563 -0.0297267 0 0 0.0669135 0 0 
130 1 130 0.219897 0.179969 0 0 -0.159974 -0.0765656 -0.075826 -0.0360078 0 0 0.634633 0 0 
131 1 131 0.219876 0.21997 0 0 -0.180125 -0.0721885 -0.0808808 -0.0334973 0 0 0.659178 0 0 
132 1 132 0.219854 0.259974 0 0 -0.193 -0.059095 -0.0808096 -0.0364604 0 0 0.771755 0 0 
133 1 133 0.219831 0.29998 0 0 -0.208433 -0.0485214 -0.0823741 -0.0376577 0 0 0.958036 0 0 
134 1 134 0.219808 0.33999 0 0 -0.233284 -0.0420663 -0.0882821 -0.0349069 0 0 0.348297 0 0 
135 1 135 0.219791 0.380001 0 0 -0.251213 -0.0358195 -0.0920298 -0.0169992 0 0 -0.11833 0 0 
136 1 136 0.219779 0.420015 0 0 -0.280172 -0.053201 -0.106897 -0.0104061 0 0 -0.286957 0 0 
137 1 137 0.219772 0.460028 0 0 -0.30272 -0.0556375 -0.114918 0.0102612 0 0 -0.957609 0 0 
138 1 138 0.21977 0.500042 0 0 -0.325726 -0.0699935 -0.126913 0.0121134 0 0 -0.405185 0 0 
139 1 139 0.219764 0.540056 0 0 -0.346527 -0.0677269 -0.132861 0.00560784 0 0 0.53946 0 0 
140 1 140 0.219754 0.580072 0 0 -0.373473 -0.0821111 -0.146134 0.00926848 0 0 0.631122 0 0 
141 1 141 0.219738 0.620088 0 0 -0.4001 -0.0744595 -0.15223 -0.00650773 0 0 1.79407 0 0 
142 1 142 0.219713 0.660108 0 0 -0.430506 -0.0755463 -0.162343 0.00298468 0 0 0.954235 0 0 
143 1 143 0.219687 0.700131 0 0 -0.440929 -0.0426565 -0.155125 0.0112874 0 0 0.0335049 0 0 
144 1 144 0.219662 0.74016 0 0 -0.46701 -0.0309747 -0.15975 0.0318986 0 0 -0.878449 0 0 
145 1 145 0.219646 0.780193 0 0 -0.469489 0.00494852 -0.149006 0.0526737 0 0 -1.25343 0 0 
146 1 146 0.219635 0.820232 0 0 -0.475157 0.0263406 -0.143953 0.06339 0 0 -1.08895 0 0 
147 1 147 0.219622 0.860273 0 0 -0.478947 0.0356045 -0.142197 0.0583065 0 0 -1.29532 0 0 
148 1 148 0.219605 0.900316 0 0 -0.471598 0.0444399 -0.136997 0.0547088 0 0 -2.728 0 0 
149 1 149 0.219575 0.940357 0 0 -0.449874 0.0304371 -0.134538 0.00735648 0 0 -2.90656 0 0 
150 1 150 0.219535 0.980393 0 0 -0.4066 0.0111596 -0.126832 0.0182751 0 0 -4.81633 0 0 
151 1 151 0.259984 0.0199951 0 0 -0.0424897 -0.0827217 -0.0401246 -0.0653847 0 0 0.522215 0 0 
152 1 152 0.259953 0.0599858 0 0 -0.0648294 -0.0846744 -0.0479071 -0.0603419 0 0 1.04397 0 0 
153 1 153 0.259925 0.0999779 0 0 -0.101928 -0.0921393 -0.0622 -0.0532927 0 0 1.04032 0 0 
154 1 154 0.2599 0.139973 0 0 -0.12755 -0.07054 -0.0634906 -0.0482993 0 0 0.471589 0 0 
155 1 155 0.259876 0.179972 0 0 -0.160859 -0.0801908 -0.0772709 -0.0480663 0 0 0.390965 0 0 
156 1 156 0.259851 0.219973 0 0 -0.170593 -0.059036 -0.0736015 -0.0474603 0 0 0.112375 0 0 
157 1 157 0.259826 0.259978 0 0 -0.202166 -0.0651539 -0.0856916 -0.0504879 0 0 0.167555 0 0 
158 1 158 0.259799 0.299985 0 0 -0.22302 -0.0494612 -0.0873516 -0.0506352 0 0 0.327039 0 0 
159 1 159 0.259772 0.339995 0 0 -0.251717 -0.0508961 -0.0970243 -0.0498147 0 0 -0.0561766 0 0 
160 1 160 0.25975 0.380007 0 0 -0.26958 -0.0421506 -0.0999535 -0.0219651 0 0 -0.55867 0 0 
161 1 161 0.259735 0.420022 0 0 -0.281175 -0.0415966 -0.103497 -0.0179021 0 0 -0.687658 0 0 
162 1 162 0.259724 0.460037 0 0 -0.30016 -0.041987 -0.109719 0.00611198 0 0 -1.51168 0 0 
163 1 163 0.259716 0.500054 0 0 -0.326215 -0.0395379 -0.117299 0.00607582 0 0 -1.02182 0 0 
164 1 164 0.259701 0.540073 0 0 -0.346973 -0.0389683 -0.123775 0.00376963 0 0 -0.877724 0 0 
165 1 165 0.25968 0.580094 0 0 -0.359572 -0.0440325 -0.129445 0.0104077 0 0 -1.98517 0 0 
166 1 166 0.259651 0.620115 0 0 -0.358396 -0.0254501 -0.1231 -0.00700429 0 0 -2.35563 0 0 
167 1 167 0.259619 0.660138 0 0 -0.366897 -0.0293962 -0.127093 0.00982926 0 0 -4.053 0 0 
168 1 168 0.259592 0.700164 0 0 -0.376095 0.00025955 -0.120523 0.00961523 0 0 -4.33259 0 0 
169 1 169 0.259569 0.740194 0 0 -0.406453 0.0097029 -0.127238 0.0292727 0 0 -4.61455 0 0 
170 1 170 0.259555 0.780229 0 0 -0.427143 0.0320742 -0.126697 0.0488266 0 0 -4.45355 0 0 
171 1 171 0.259546 0.820269 0 0 -0.445049 0.05245 -0.1259 0.0536053 0 0 -3.6574 0 0 
172 1 172 0.259536 0.860312 0 0 -0.455271 0.0534336 -0.12887 0.0483765 0 0 -3.2257 0 0 
173 1 173 0.259523 0.900356 0 0 -0.450122 0.0600066 -0.125103 0.0387898 0 0 -3.77428 0 0 
174 1 174 0.259499 0.940397 0 0 -0.437709 0.0357501 -0.128924 0.00363015 0 0 -3.81131 0 0 
175 1 175 0.259468 0.980433 0 0 -0.395637 0.0165979 -0.121563 0.0137618 0 0 -5.22537 0 0 
176 1 176 0.299984 0.0199949 0 0 -0.0463387 -0.0871503 -0.0427794 -0.0707584 0 0 0.671116 0 0 
177 1 177 0.299952 0.0599847 0 0 -0.0655664 -0.0878869 -0.0491764 -0.0770637 0 0 1.3809 0 0 
178 1 178 0.299918 0.0999771 0 0 -0.0935241 -0.0859858 -0.0575307 -0.0712039 0 0 1.26123 0 0 
179 1 179 0.299886 0.139973 0 0 -0.125263 -0.0697353 -0.0624971 -0.0726225 0 0 0.678924 0 0 
180 1 180 0.299856 0.179972 0 0 -0.171611 -0.0819191 -0.0812739 -0.0647747 0 0 0.252328 0 0 
181 1 181 0.299828 0.219974 0 0 -0.194817 -0.0666187 -0.0838062 -0.0627284 0 0 -0.0621465 0 0 
182 1 182 0.299798 0.259979 0 0 -0.226035 -0.0645627 -0.0931611 -0.0672577 0 0 -0.00855303 0 0 
183 1 183 0.299766 0.299987 0 0 -0.246692 -0.0560189 -0.0970489 -0.0573747 0 0 -0.203709 0 0 
184 1 184 0.299736 0.339999 0 0 -0.256429 -0.0400631 -0.0950543 -0.0573835 0 0 -0.132408 0 0 
185 1 185 0.299711 0.380013 0 0 -0.279384 -0.0369812 -0.101434 -0.0216149 0 0 -0.500669 0 0 
186 1 186 0.299693 0.420029 0 0 -0.303017 -0.0342064 -0.108132 -0.0147171 0 0 -0.481306 0 0 
187 1 187 0.299679 0.460048 0 0 -0.332744 -0.0323151 -0.117074 0.00942711 0 0 -0.600017 0 0 
188 1 188 0.299669 0.500069 0 0 -0.365542 -0.0298646 -0.12682 0.0123315 0 0 -0.0640128 0 0 
189 1 189 0.299655 0.540093 0 0 -0.383304 -0.0230912 -0.130344 0.0154518 0 0 0.117836 0 0 
190 1 190 0.299641 0.580119 0 0 -0.412775 -0.0396989 -0.145137 0.0184534 0 0 0.0614532 0 0 
191 1 191 0.299619 0.620144 0 0 -0.434467 -0.0358559 -0.150868 -0.000283516 0 0 0.451573 0 0 
192 1 192 0.299589 0.660171 0 0 -0.459463 -0.0595009 -0.166491 0.0123323 0 0 -0.794569 0 0 
193 1 193 0.299556 0.700198 0 0 -0.462401 -0.034924 -0.159538 0.00218874 0 0 -1.10501 0 0 
194 1 194 0.299523 0.74023 0 0 -0.468458 -0.02443 -0.158113 0.0217598 0 0 -2.04443 0 0 
195 1 195 0.299499 0.780263 0 0 -0.470643 0.00578008 -0.14911 0.0302575 0 0 -2.29683 0 0 
196 1 196 0.29948 0.820303 0 0 -0.47772 0.0282791 -0.144153 0.0352052 0 0 -2.42483 0 0 
197 1 197 0.299466 0.860344 0 0 -0.471225 0.0366966 -0.139368 0.0330894 0 0 -2.69654 0 0 
198 1 198 0.29945 0.900387 0 0 -0.455149 0.0512227 -0.129538 0.0195413 0 0 -3.28272 0 0 
199 1 199 0.299428 0.940427 0 0 -0.438501 0.0287863 -0.131412 -0.00394058 0 0 -3.67428 0 0 
200 1 200 0.299404 0.980462 0 0 -0.405415 0.0140414 -0.12552 0.00666789 0 0 -4.88194 0 0 
201 1 201 0.339983 0.0199943 0 0 -0.0469126 -0.0971061 -0.0461553 -0.0728896 0 0 0.66348 0 0 
202 1 202 0.339945 0.0599827 0 0 -0.0657937 -0.0948007 -0.0514669 -0.0882941 0 0 1.38014 0 0 
203 1 203 0.339907 0.0999748 0 0 -0.10361 -0.0907603 -0.0622976 -0.0841929 0 0 1.47644 0 0 
204 1 204 0.33987 0.13997 0 0 -0.142564 -0.0848592 -0.072898 -0.090022 0 0 1.2472 0 0 
205 1 205 0.339833 0.179969 0 0 -0.171621 -0.0691742 -0.0771897 -0.0776489 0 0 0.300953 0 0 
206 1 206 0.339799 0.219973 0 0 -0.202952 -0.0624306 -0.0850756 -0.0730347 0 0 -0.468834 0 0 
207 1 207 0.339764 0.25998 0 0 -0.232223 -0.0486772 -0.0900515 -0.0763612 0 0 -0.473107 0 0 
208 1 208 0.339728 0.299992 0 0 -0.257536 -0.0434704 -0.0965018 -0.0576996 0 0 -0.743224 0 0 
209 1 209 0.339694 0.340006 0 0 -0.275235 -0.0353772 -0.0995856 -0.0570844 0 0 -0.281326 0 0 
210 1 210 0.339665 0.380022 0 0 -0.298165 -0.027387 -0.104379 -0.0258148 0 0 -0.567992 0 0 
211 1 211 0.339643 0.420042 0 0 -0.315328 -0.0220252 -0.10817 -0.0135827 0 0 -0.679234 0 0 
212 1 212 0.339625 0.460064 0 0 -0.320261 0.00207782 -0.102022 0.00150021 0 0 -0.498075 0 0 
213 1 213 0.339607 0.50009 0 0 -0.350759 0.000318 -0.112381 0.00141173 0 0 -0.445505 0 0 
214 1 214 0.339585 0.540118 0 0 -0.364068 0.0111683 -0.113167 0.0089326 0 0 -1.15282 0 0 
215 1 215 0.339559 0.580148 0 0 -0.375214 0.0022348 -0.119611 0.00402325 0 0 -2.15882 0 0 
216 1 216 0.339526 0.620176 0 0 -0.362147 0.0126826 -0.112064 -0.00723757 0 0 -3.66113 0 0 
217 1 217 0.339492 0.660205 0 0 -0.356209 -0.00112436 -0.114588 0.00115394 0 0 -5.22955 0 0 
218 1 218 0.33946 0.700232 0 0 -0.365561 0.00999806 -0.11402 -0.0147989 0 0 -5.07821 0 0 
219 1 219 0.339431 0.740263 0 0 -0.386566 0.00409663 -0.122656 0.010319 0 0 -5.78852 0 0 
220 1 220 0.339411 0.780294 0 0 -0.39823 0.0211716 -0.120917 0.0110471 0 0 -5.2562 0 0 
221 1 221 0.339394 0.82033 0 0 -0.415547 0.0369507 -0.121408 0.018526 0 0 -5.04029 0 0 
222 1 222 0.339383 0.860368 0 0 -0.4336 0.0381218 -0.126834 0.0170711 0 0 -4.67087 0 0 
223 1 223 0.33937 0.900408 0 0 -0.441955 0.0420879 -0.128239 0.00336439 0 0 -4.48467 0 0 
224 1 224 0.339353 0.940447 0 0 -0.438039 0.0230885 -0.133093 -0.00851114 0 0 -4.45639 0 0 
225 1 225 0.339335 0.980482 0 0 -0.422688 0.0107379 -0.132125 -0.00251915 0 0 -4.90328 0 0 
226 1 226 0.379983 0.019994 0 0 -0.0631971 -0.107395 -0.0546741 -0.075123 0 0 0.721496 0 0 
227 1 227 0.379943 0.059982 0 0 -0.0877116 -0.106292 -0.0621797 -0.092097 0 0 1.48295 0 0 
228 1 228 0.379899 0.0999739 0 0 -0.107041 -0.0900521 -0.0631713 -0.0859192 0 0 1.64143 0 0 
229 1 229 0.379855 0.139969 0 0 -0.137107 -0.080944 -0.0698921 -0.0888625 0 0 1.62083 0 0 
230 1 230 0.379811 0.17997 0 0 -0.172565 -0.0591623 -0.0742822 -0.0745134 0 0 0.449359 0 0 
231 1 231 0.379771 0.219976 0 0 -0.216087 -0.0473612 -0.0844596 -0.069646 0 0 -0.295118 0 0 
232 1 232 0.37973 0.259986 0 0 -0.24855 -0.0422729 -0.093241 -0.0670347 0 0 -0.353885 0 0 
233 1 233 0.37969 0.3 0 0 -0.261308 -0.0222615 -0.0909117 -0.0489167 0 0 -0.719923 0 0 
234 1 234 0.379653 0.340017 0 0 -0.28474 -0.0323652 -0.101674 -0.0492771 0 0 -0.305587 0 0 
235 1 235 0.379621 0.380035 0 0 -0.296609 -0.0193852 -0.101313 -0.0249324 0 0 -0.419953 0 0 
236 1 236 0.379596 0.420056 0 0 -0.316887 -0.00493357 -0.103184 -0.0148916 0 0 -0.0382134 0 0 
237 1 237 0.379575 0.46008 0 0 -0.350798 -0.00646012 -0.114559 -0.00718396 0 0 0.489987 0 0 
238 1 238 0.379554 0.500108 0 0 -0.368822 0.00997864 -0.115071 -0.0126414 0 0 0.830277 0 0 
239 1 239 0.379535 0.540138 0 0 -0.384663 0.0116192 -0.119628 -0.00213763 0 0 0.30467 0 0 
240 1 240 0.379516 0.580169 0 0 -0.410225 -0.00292395 -0.132506 -0.0158362 0 0 0.242008 0 0 
241 1 241 0.379491 0.6202 0 0 -0.433214 -0.0110569 -0.142504 -0.0237228 0 0 -0.529036 0 0 
242 1 242 0.379463 0.66023 0 0 -0.455625 -0.0419942 -0.159637 -0.0202837 0 0 -1.43765 0 0 
243 1 243 0.379426 0.700258 0 0 -0.449486 -0.0331194 -0.154814 -0.0412934 0 0 -1.26206 0 0 
244 1 244 0.379389 0.740287 0 0 -0.456479 -0.0394133 -0.15908 -0.0168977 0 0 -2.72253 0 0 
245 1 245 0.379359 0.780317 0 0 -0.465464 -0.022386 -0.156496 -0.0191486 0 0 -2.97132 0 0 
246 1 246 0.379333 0.82035 0 0 -0.472259 -0.0115454 -0.155196 -0.00108282 0 0 -3.82747 0 0 
247 1 247 0.379316 0.860385 0 0 -0.471358 0.00586304 -0.149322 -0.00126089 0 0 -4.00016 0 0 
248 1 248 0.379299 0.900423 0 0 -0.471042 0.0132921 -0.146832 -0.0063028 0 0 -4.13172 0 0 
249 1 249 0.379282 0.94046 0 0 -0.463877 0.00687833 -0.146601 -0.0103681 0 0 -4.20201 0 0 
250 1 250 0.379265 0.980496 0 0 -0.461928 0.00104553 -0.14784 -0.00830797 0 0 -4.29209 0 0 
251 1 251 0.419979 0.019994 0 0 -0.0674508 -0.107479 -0.0560646 -0.0859329 0 0 0.419985 0 0 
252 1 252 0.419933 0.0599833 0 0 -0.0912275 -0.0963239 -0.0601091 -0.100021 0 0 1.16681 0 0 
253 1 253 0.419885 0.0999773 0 0 -0.119434 -0.0836751 -0.0651002 -0.0933424 0 0 1.87527 0 0 
254 1 254 0.419836 0.139975 0 0 -0.155808 -0.0686341 -0.0719434 -0.0928632 0 0 2.23158 0 0 
255 1 255 0.419785 0.179978 0 0 -0.19664 -0.0613947 -0.0827235 -0.076562 0 0 0.908368 0 0 
256 1 256 0.419738 0.219987 0 0 -0.219379 -0.0259396 -0.078645 -0.0695071 0 0 0.16215 0 0 
257 1 257 0.419691 0.26 0 0 -0.24689 -0.0294238 -0.0885887 -0.0614032 0 0 -0.336585 0 0 
258 1 258 0.419649 0.300016 0 0 -0.256163 -0.0149109 -0.0869069 -0.0464689 0 0 -0.978016 0 0 
259 1 259 0.41961 0.340033 0 0 -0.265238 -0.0167882 -0.09042 -0.0482536 0 0 -0.386608 0 0 
260 1 260 0.419574 0.380051 0 0 -0.274461 -0.0188734 -0.0940445 -0.0285792 0 0 -0.47983 0 0 
261 1 261 0.419546 0.420072 0 0 -0.278576 0.0141224 -0.0847773 -0.0302858 0 0 0.0170539 0 0 
262 1 262 0.419518 0.460096 0 0 -0.307053 0.00828864 -0.0957862 -0.0275846 0 0 0.150257 0 0 
263 1 263 0.419492 0.500123 0 0 -0.317242 0.0330434 -0.0911144 -0.0338683 0 0 0.0305581 0 0 
264 1 264 0.419464 0.540153 0 0 -0.337996 0.0342061 -0.0973991 -0.0304114 0 0 -0.981891 0 0 
265 1 265 0.419434 0.580184 0 0 -0.349214 0.025153 -0.103905 -0.0411944 0 0 -2.08798 0 0 
266 1 266 0.4194 0.620215 0 0 -0.323924 0.0445386 -0.0895736 -0.0474789 0 0 -3.82604 0 0 
267 1 267 0.419366 0.660246 0 0 -0.334324 0.0211346 -0.10042 -0.0484043 0 0 -5.01345 0 0 
268 1 268 0.419332 0.700274 0 0 -0.339604 0.0225997 -0.101643 -0.0597962 0 0 -4.81423 0 0 
269 1 269 0.419301 0.740303 0 0 -0.356848 0.00297037 -0.113477 -0.0383988 0 0 -5.44292 0 0 
270 1 270 0.419274 0.780332 0 0 -0.380479 0.014532 -0.117354 -0.041365 0 0 -5.22539 0 0 
271 1 271 0.419251 0.820364 0 0 -0.414758 0.00657216 -0.130914 -0.0169248 0 0 -5.9875 0 0 
272 1 272 0.419234 0.860398 0 0 -0.444546 0.0136177 -0.138223 -0.0164086 0 0 -5.50608 0 0 
273 1 273 0.419218 0.900435 0 0 -0.467662 0.00848937 -0.147292 -0.00862134 0 0 -5.26137 0 0 
274 1 274 0.419204 0.940472 0 0 -0.476242 0.00137476 -0.152342 -0.00922732 0 0 -4.75561 0 0 
275 1 275 0.419187 0.980509 0 0 -0.48987 0.000940609 -0.156849 -0.0109418 0 0 -4.29451 0 0 
276 1 276 0.459976 0.019994 0 0 -0.0902586 -0.116633 -0.0663173 -0.102871 0 0 0.535176 0 0 
277 1 277 0.459926 0.0599851 0 0 -0.127259 -0.0911108 -0.0699941 -0.106044 0 0 1.67048 0 0 
278 1 278 0.459872 0.0999825 0 0 -0.15085 -0.0788702 -0.0736367 -0.10147 0 0 2.30975 0 0 
279 1 279 0.459816 0.139984 0 0 -0.164178 -0.0489722 -0.068323 -0.101545 0 0 2.54173 0 0 
280 1 280 0.459759 0.17999 0 0 -0.192515 -0.0425424 -0.0753521 -0.0888387 0 0 1.49226 0 0 
281 1 281 0.459706 0.220001 0 0 -0.212152 -0.011242 -0.0716107 -0.0791075 0 0 0.694295 0 0 
282 1 282 0.459655 0.260016 0 0 -0.231493 -0.0103991 -0.077545 -0.067658 0 0 -0.246837 0 0 
283 1 283 0.459611 0.300032 0 0 -0.240911 -0.0127784 -0.0813293 -0.0510846 0 0 -0.974265 0 0 
284 1 284 0.459571 0.340049 0 0 -0.235106 -0.00463958 -0.0768549 -0.0495709 0 0 -0.428291 0 0 
285 1 285 0.459535 0.380066 0 0 -0.250729 -0.0186027 -0.0863434 -0.0400472 0 0 -0.616527 0 0 
286 1 286 0.459503 0.420084 0 0 -0.274088 -0.000600999 -0.0880609 -0.0434438 0 0 0.0993413 0 0 
287 1 287 0.459472 0.460106 0 0 -0.305649 0.00271832 -0.0971262 -0.0413955 0 0 0.693733 0 0 
288 1 288 0.459443 0.500132 0 0 -0.329723 0.0132994 -0.10146 -0.0452324 0 0 0.854015 0 0 
289 1 289 0.459417 0.54016 0 0 -0.354033 0.0149424 -0.10873 -0.0442541 0 0 0.419202 0 0 
290 1 290 0.459394 0.58019 0 0 -0.384609 0.00862362 -0.120571 -0.0524871 0 0 0.336962 0 0 
291 1 291 0.459368 0.620221 0 0 -0.42034 -0.00609723 -0.136772 -0.0572763 0 0 -0.317818 0 0 
292 1 292 0.459338 0.660251 0 0 -0.448121 -0.0248614 -0.15172 -0.0653672 0 0 -0.533861 0 0 
293 1 293 0.4593 0.700281 0 0 -0.448861 -0.0223813 -0.151162 -0.0710258 0 0 -0.843791 0 0 
294 1 294 0.45926 0.740312 0 0 -0.466275 -0.0424639 -0.163205 -0.0608958 0 0 -2.14569 0 0 
295 1 295 0.459222 0.780342 0 0 -0.478898 -0.0255842 -0.161842 -0.0601878 0 0 -2.69691 0 0 
296 1 296 0.45919 0.820375 0 0 -0.499444 -0.0331394 -0.170867 -0.0294576 0 0 -4.34073 0 0 
297 1 297 0.459165 0.860409 0 0 -0.507318 -0.00919221 -0.16571 -0.0295746 0 0 -4.42454 0 0 
298 1 298 0.459143 0.900447 0 0 -0.5183 -0.0131207 -0.1705 -0.00720889 0 0 -4.84276 0 0 
299 1 299 0.459126 0.940484 0 0 -0.518747 -0.00747874 -0.168838 -0.00791353 0 0 -4.30264 0 0 
300 1 300 0.459107 0.980523 0 0 -0.527259 -0.00352624 -0.170294 -0.00875117 0 0 -3.88289 0 0 
301 1 301 0.499969 0.0199946 0 0 -0.0839449 -0.108489 -0.0616813 -0.125563 0 0 0.131327 0 0 
302 1 302 0.499909 0.0599877 0 0 -0.117222 -0.0687329 -0.0595984 -0.119246 0 0 1.22713 0 0 
303 1 303 0.49985 0.0999878 0 0 -0.156106 -0.0644411 -0.0706956 -0.120375 0 0 2.10948 0 0 
304 1 304 0.49979 0.139991 0 0 -0.178744 -0.0426702 -0.0709739 -0.118178 0 0 2.5982 0 0 
305 1 305 0.499729 0.180001 0 0 -0.199413 -0.0298063 -0.0734791 -0.112625 0 0 2.07372 0 0 
306 1 306 0.499671 0.220013 0 0 -0.218077 -0.00974424 -0.07303 -0.10222 0 0 1.17031 0 0 
307 1 307 0.499618 0.260029 0 0 -0.225529 -0.0053414 -0.0740068 -0.0847576 0 0 -0.0438347 0 0 
308 1 308 0.499573 0.300045 0 0 -0.224108 -0.00453439 -0.0732915 -0.0714442 0 0 -0.787049 0 0 
309 1 309 0.499534 0.340061 0 0 -0.224737 -0.0119498 -0.0758711 -0.0643086 0 0 -0.794539 0 0 
310 1 310 0.499496 0.380076 0 0 -0.23013 -0.0151387 -0.0786212 -0.0667519 0 0 -0.834766 0 0 
311 1 311 0.499459 0.420093 0 0 -0.24585 0.000663739 -0.0785944 -0.0709375 0 0 -0.165635 0 0 
312 1 312 0.499422 0.460113 0 0 -0.264335 0.0113033 -0.0811169 -0.0654731 0 0 -0.315285 0 0 
313 1 313 0.499387 0.500137 0 0 -0.279758 0.0279334 -0.0807334 -0.0702942 0 0 -0.40451 0 0 
314 1 314 0.499352 0.540164 0 0 -0.306244 0.0268872 -0.0895626 -0.0642235 0 0 -1.40123 0 0 
315 1 315 0.499316 0.580193 0 0 -0.308481 0.043259 -0.0850241 -0.0671544 0 0 -2.34332 0 0 
316 1 316 0.499278 0.620223 0 0 -0.306251 0.04839 -0.0826634 -0.0696982 0 0 -3.62381 0 0 
317 1 317 0.499241 0.660255 0 0 -0.313872 0.048772 -0.0849856 -0.0714498 0 0 -4.08068 0 0 
318 1 318 0.499206 0.700286 0 0 -0.328811 0.0413665 -0.0921564 -0.0704041 0 0 -4.15898 0 0 
319 1 319 0.49917 0.740318 0 0 -0.367074 0.0173746 -0.112136 -0.0682129 0 0 -4.57861 0 0 
320 1 320 0.499135 0.78035 0 0 -0.394461 0.0285817 -0.117333 -0.0625357 0 0 -4.82766 0 0 
321 1 321 0.499103 0.820385 0 0 -0.440072 0.00584077 -0.139275 -0.0343614 0 0 -5.93795 0 0 
322 1 322 0.499078 0.860421 0 0 -0.478154 0.0172274 -0.147853 -0.0312201 0 0 -5.43975 0 0 
323 1 323 0.499056 0.900461 0 0 -0.510724 0.00288341 -0.162921 0.00190484 0 0 -5.58043 0 0 
324 1 324 0.49904 0.940501 0 0 -0.52505 0.00770976 -0.165979 -0.000506768 0 0 -4.45198 0 0 
325 1 325 0.49902 0.980542 0 0 -0.541503 0.00135666 -0.173299 0.000451993 0 0 -4.09796 0 0 
326 1 326 0.539965 0.0199949 0 0 -0.0910687 -0.107939 -0.0637893 -0.151295 0 0 0.121463 0 0 
327 1 327 0.539898 0.059988 0 0 -0.135528 -0.0798488 -0.0690371 -0.137341 0 0 1.4656 0 0 