ITEM: TIMESTEP
0
ITEM: NUMBER OF ATOMS
6875
ITEM: BOX BOUNDS sm sm sm
0 4
0 2
0 0
ITEM: ATOMS id type tag x y z damage s11 s22 s33 s12 s13 s23 vx T ienergy 
1 1 1 0.0199956 0.0199977 0 0 -0.0577786 -0.0587682 -0.0373439 -0.0209284 0 0 -0.068266 0 0 
2 1 2 0.0199923 0.0599936 0 0 -0.0920936 -0.0581284 -0.0481328 -0.027972 0 0 0.0732118 0 0 
3 1 3 0.0199927 0.0999925 0 0 -0.0957807 -0.0524695 -0.0475036 -0.0345146 0 0 0.256043 0 0 
4 1 4 0.0199943 0.139991 0 0 -0.0901598 -0.0436846 -0.0428862 -0.0356493 0 0 0.23103 0 0 
5 1 5 0.0199932 0.179992 0 0 -0.0928108 -0.043691 -0.0437354 -0.0391384 0 0 0.0889533 0 0 
6 1 6 0.0199926 0.219991 0 0 -0.102863 -0.0459543 -0.0476827 -0.037257 0 0 0.105709 0 0 
7 1 7 0.0199916 0.259992 0 0 -0.11493 -0.0522892 -0.0535827 -0.036736 0 0 0.153939 0 0 
8 1 8 0.0199905 0.299992 0 0 -0.138537 -0.0641016 -0.0649394 -0.0376825 0 0 0.226259 0 0 
9 1 9 0.0199875 0.339993 0 0 -0.171386 -0.0792847 -0.0803463 -0.0372771 0 0 0.251854 0 0 
10 1 10 0.0199855 0.379993 0 0 -0.200258 -0.0905477 -0.0932221 -0.0341007 0 0 0.139008 0 0 
11 1 11 0.0199824 0.419994 0 0 -0.220037 -0.101571 -0.103106 -0.0302171 0 0 0.0591649 0 0 
12 1 12 0.0199793 0.459994 0 0 -0.232467 -0.103352 -0.107669 -0.0280245 0 0 -0.0853953 0 0 
13 1 13 0.0199748 0.499996 0 0 -0.238746 -0.109965 -0.111808 -0.0213185 0 0 -0.424514 0 0 
14 1 14 0.019972 0.539996 0 0 -0.235173 -0.102852 -0.10838 -0.0200877 0 0 -0.556854 0 0 
15 1 15 0.0199663 0.579998 0 0 -0.240557 -0.106393 -0.111246 -0.0137443 0 0 -0.485959 0 0 
16 1 16 0.0199602 0.619999 0 0 -0.240897 -0.0990938 -0.109013 -0.00750776 0 0 -0.545007 0 0 
17 1 17 0.0199531 0.660001 0 0 -0.249404 -0.104937 -0.113621 0.00231035 0 0 -0.873458 0 0 
18 1 18 0.0199517 0.700003 0 0 -0.266855 -0.101675 -0.118176 0.00991852 0 0 -1.22272 0 0 
19 1 19 0.0199527 0.740007 0 0 -0.29393 -0.1246 -0.134228 0.0289336 0 0 -1.48521 0 0 
20 1 20 0.0199585 0.780009 0 0 -0.314106 -0.124756 -0.140757 0.0345022 0 0 -1.13158 0 0 
21 1 21 0.0199612 0.820013 0 0 -0.344375 -0.147675 -0.157838 0.0550759 0 0 -0.996594 0 0 
22 1 22 0.0199666 0.860015 0 0 -0.361235 -0.143198 -0.161816 0.062117 0 0 -0.532626 0 0 
23 1 23 0.019966 0.900021 0 0 -0.402358 -0.168875 -0.183277 0.0825744 0 0 -0.60734 0 0 
24 1 24 0.0199686 0.940024 0 0 -0.417067 -0.157076 -0.184221 0.102306 0 0 -0.418706 0 0 
25 1 25 0.0199542 0.980042 0 0 -0.554348 -0.122793 -0.227307 0.105455 0 0 -0.180902 0 0 
26 1 26 0.0599956 0.0199948 0 0 -0.0514989 -0.0918251 -0.0459264 -0.0247502 0 0 0.148535 0 0 
27 1 27 0.0599904 0.0599853 0 0 -0.065696 -0.074992 -0.0450804 -0.0158766 0 0 0.517404 0 0 
28 1 28 0.0599852 0.0999805 0 0 -0.0839043 -0.0608761 -0.0463892 -0.0202083 0 0 0.47886 0 0 
29 1 29 0.0599838 0.139978 0 0 -0.097909 -0.0552804 -0.0490827 -0.0196035 0 0 0.232754 0 0 
30 1 30 0.0599821 0.179977 0 0 -0.108078 -0.0531539 -0.0516661 -0.0288292 0 0 0.315573 0 0 
31 1 31 0.0599814 0.219977 0 0 -0.112379 -0.0521638 -0.0527292 -0.0270853 0 0 0.411285 0 0 
32 1 32 0.0599781 0.259977 0 0 -0.126139 -0.0564067 -0.058503 -0.0352237 0 0 0.460168 0 0 
33 1 33 0.0599747 0.299977 0 0 -0.14691 -0.0669056 -0.0685289 -0.0365509 0 0 0.407785 0 0 
34 1 34 0.0599689 0.339978 0 0 -0.168301 -0.0717948 -0.0769596 -0.0403507 0 0 0.600059 0 0 
35 1 35 0.0599647 0.379979 0 0 -0.19069 -0.0774641 -0.0859591 -0.0307731 0 0 0.565537 0 0 
36 1 36 0.0599616 0.419982 0 0 -0.213704 -0.0870944 -0.0964318 -0.0260659 0 0 0.563324 0 0 
37 1 37 0.0599622 0.459984 0 0 -0.2256 -0.0865451 -0.100076 -0.016352 0 0 0.564328 0 0 
38 1 38 0.0599639 0.499987 0 0 -0.238115 -0.0951009 -0.106839 -0.00706354 0 0 0.709947 0 0 
39 1 39 0.0599677 0.539989 0 0 -0.241769 -0.0929035 -0.107306 -0.000641382 0 0 0.918892 0 0 
40 1 40 0.0599706 0.579994 0 0 -0.248617 -0.0931383 -0.10958 0.000285976 0 0 0.92242 0 0 
41 1 41 0.0599762 0.619998 0 0 -0.258366 -0.088021 -0.111067 0.00743647 0 0 0.884198 0 0 
42 1 42 0.059979 0.660006 0 0 -0.279154 -0.0922829 -0.119108 0.00798101 0 0 1.35114 0 0 
43 1 43 0.059976 0.700013 0 0 -0.297466 -0.0890467 -0.123949 0.0100494 0 0 1.96935 0 0 
44 1 44 0.0599678 0.740022 0 0 -0.316348 -0.0964985 -0.132403 0.0262965 0 0 1.68628 0 0 
45 1 45 0.0599579 0.78003 0 0 -0.337255 -0.105017 -0.141852 0.0268863 0 0 1.73047 0 0 
46 1 46 0.0599468 0.820039 0 0 -0.353441 -0.105608 -0.147237 0.050894 0 0 0.883753 0 0 
47 1 47 0.059938 0.860049 0 0 -0.374576 -0.113223 -0.156478 0.0533396 0 0 0.880953 0 0 
48 1 48 0.0599278 0.900061 0 0 -0.382636 -0.0960097 -0.153526 0.0756219 0 0 0.459433 0 0 
49 1 49 0.0599154 0.940079 0 0 -0.463559 -0.0765287 -0.173274 0.0870742 0 0 0.41269 0 0 
50 1 50 0.0598823 0.980109 0 0 -0.434417 0.0274943 -0.130509 0.0115502 0 0 0.816936 0 0 
51 1 51 0.0999916 0.0199942 0 0 -0.0518721 -0.0962043 -0.0474643 -0.0280784 0 0 0.223368 0 0 
52 1 52 0.0999804 0.0599841 0 0 -0.0646109 -0.0871775 -0.0486461 -0.0153594 0 0 0.480936 0 0 
53 1 53 0.0999742 0.0999763 0 0 -0.0855268 -0.0781204 -0.0524402 -0.0153763 0 0 0.486143 0 0 
54 1 54 0.0999715 0.139972 0 0 -0.0985709 -0.0666559 -0.0529461 -0.00961171 0 0 0.342936 0 0 
55 1 55 0.099968 0.179969 0 0 -0.106247 -0.0614362 -0.053738 -0.0201537 0 0 0.559831 0 0 
56 1 56 0.0999647 0.219968 0 0 -0.117412 -0.0619897 -0.0574969 -0.0169744 0 0 0.374006 0 0 
57 1 57 0.0999603 0.259967 0 0 -0.131981 -0.0635931 -0.0626856 -0.0316401 0 0 0.691221 0 0 
58 1 58 0.0999535 0.299968 0 0 -0.148912 -0.0633012 -0.0680204 -0.0288956 0 0 0.726772 0 0 
59 1 59 0.0999442 0.339969 0 0 -0.171003 -0.0696621 -0.0771476 -0.0381571 0 0 0.98035 0 0 
60 1 60 0.0999349 0.379973 0 0 -0.189065 -0.0625514 -0.0806575 -0.0245366 0 0 0.726646 0 0 
61 1 61 0.0999268 0.419977 0 0 -0.212464 -0.0725658 -0.0913755 -0.022534 0 0 0.612614 0 0 
62 1 62 0.099919 0.459983 0 0 -0.222518 -0.0657702 -0.0924229 -0.00581655 0 0 0.266122 0 0 
63 1 63 0.0999132 0.499989 0 0 -0.23108 -0.0753983 -0.0982609 0.000229307 0 0 -0.0883693 0 0 
64 1 64 0.0999084 0.539995 0 0 -0.23777 -0.0713059 -0.0990927 0.00970675 0 0 -0.0405226 0 0 
65 1 65 0.0999017 0.580001 0 0 -0.247794 -0.0803461 -0.105208 0.00960388 0 0 0.0740856 0 0 
66 1 66 0.0998914 0.620007 0 0 -0.256431 -0.072107 -0.105339 0.0138844 0 0 0.158222 0 0 
67 1 67 0.0998805 0.660015 0 0 -0.269691 -0.0715549 -0.109417 0.0120947 0 0 -0.544236 0 0 
68 1 68 0.0998721 0.700024 0 0 -0.282601 -0.0664738 -0.111932 0.0129893 0 0 -0.859731 0 0 
69 1 69 0.0998687 0.740036 0 0 -0.303131 -0.0625993 -0.117278 0.0251724 0 0 -1.35546 0 0 
70 1 70 0.0998674 0.78005 0 0 -0.328486 -0.0703498 -0.127908 0.0239713 0 0 -0.462748 0 0 
71 1 71 0.0998654 0.820065 0 0 -0.349919 -0.0669431 -0.133694 0.0447339 0 0 -0.608434 0 0 
72 1 72 0.0998632 0.860081 0 0 -0.375559 -0.0771667 -0.145219 0.0450496 0 0 -0.214731 0 0 
73 1 73 0.0998556 0.900101 0 0 -0.406335 -0.0437966 -0.144376 0.0579868 0 0 -0.286644 0 0 
74 1 74 0.0998389 0.940127 0 0 -0.411842 -0.0125981 -0.136128 0.0255371 0 0 -0.17663 0 0 
75 1 75 0.0998094 0.980156 0 0 -0.388717 -0.0144642 -0.129306 0.0126494 0 0 0.146271 0 0 
76 1 76 0.139994 0.0199946 0 0 -0.0508904 -0.0929789 -0.0461128 -0.0318663 0 0 0.493042 0 0 
77 1 77 0.139982 0.059984 0 0 -0.0650584 -0.0875185 -0.0488979 -0.0221628 0 0 0.708004 0 0 
78 1 78 0.13997 0.099976 0 0 -0.0806633 -0.0835276 -0.0526245 -0.0201317 0 0 0.540431 0 0 
79 1 79 0.139962 0.13997 0 0 -0.0919469 -0.0704087 -0.0520314 -0.0069066 0 0 0.302257 0 0 
80 1 80 0.139957 0.179966 0 0 -0.109093 -0.0718111 -0.057978 -0.0150392 0 0 0.512457 0 0 
81 1 81 0.139952 0.219964 0 0 -0.121534 -0.066307 -0.0602023 -0.00905173 0 0 0.250327 0 0 
82 1 82 0.139946 0.259963 0 0 -0.138862 -0.0706294 -0.0671482 -0.0221916 0 0 0.681296 0 0 
83 1 83 0.139936 0.299963 0 0 -0.148261 -0.0564084 -0.0656043 -0.0195763 0 0 0.680591 0 0 
84 1 84 0.139925 0.339966 0 0 -0.174082 -0.0683785 -0.0777282 -0.0298248 0 0 1.03345 0 0 
85 1 85 0.139913 0.379969 0 0 -0.186881 -0.0491454 -0.0756595 -0.0165695 0 0 0.980271 0 0 
86 1 86 0.139905 0.419976 0 0 -0.208454 -0.0599644 -0.0860468 -0.0139639 0 0 0.956548 0 0 
87 1 87 0.139901 0.459983 0 0 -0.216095 -0.0472124 -0.0844068 0.000503994 0 0 0.879566 0 0 
88 1 88 0.1399 0.499991 0 0 -0.237012 -0.0645703 -0.0966891 0.0082551 0 0 0.937442 0 0 
89 1 89 0.139901 0.539999 0 0 -0.244298 -0.059619 -0.097437 0.0105544 0 0 1.42449 0 0 
90 1 90 0.139902 0.580008 0 0 -0.258101 -0.0711666 -0.105571 0.0135598 0 0 1.19787 0 0 
91 1 91 0.139904 0.620017 0 0 -0.270317 -0.071007 -0.109443 0.00778568 0 0 1.65072 0 0 
92 1 92 0.139901 0.660028 0 0 -0.298029 -0.069587 -0.117883 0.00813846 0 0 1.76875 0 0 
93 1 93 0.139892 0.70004 0 0 -0.327109 -0.0744885 -0.128796 0.00541171 0 0 2.35993 0 0 
94 1 94 0.139877 0.740055 0 0 -0.344873 -0.0623797 -0.130612 0.019686 0 0 2.08242 0 0 
95 1 95 0.139861 0.780072 0 0 -0.358357 -0.0574078 -0.133348 0.0175192 0 0 2.27876 0 0 
96 1 96 0.139844 0.820091 0 0 -0.359191 -0.0454077 -0.129759 0.0381727 0 0 1.50122 0 0 
97 1 97 0.139829 0.860112 0 0 -0.377334 -0.0363611 -0.13268 0.0325553 0 0 1.59559 0 0 
98 1 98 0.139808 0.900137 0 0 -0.387035 -0.014064 -0.128629 0.0318021 0 0 1.02918 0 0 
99 1 99 0.139785 0.940164 0 0 -0.390613 -0.0152038 -0.130159 0.0198115 0 0 0.922471 0 0 
100 1 100 0.139755 0.980193 0 0 -0.366137 0.0106668 -0.113995 0.00327442 0 0 1.10993 0 0 
101 1 101 0.17999 0.0199949 0 0 -0.0478695 -0.0886328 -0.0437383 -0.0369694 0 0 0.479934 0 0 
102 1 102 0.179973 0.0599848 0 0 -0.0617759 -0.0856893 -0.0472568 -0.0285139 0 0 0.684443 0 0 
103 1 103 0.179961 0.0999772 0 0 -0.0758891 -0.0775153 -0.0491682 -0.0241829 0 0 0.550026 0 0 
104 1 104 0.179952 0.139971 0 0 -0.0968755 -0.0766435 -0.0556139 -0.0127284 0 0 0.159332 0 0 
105 1 105 0.179943 0.179967 0 0 -0.112268 -0.0718425 -0.0590068 -0.0146638 0 0 0.194096 0 0 
106 1 106 0.179936 0.219965 0 0 -0.122279 -0.0638109 -0.059637 -0.00813288 0 0 0.0372349 0 0 
107 1 107 0.179926 0.259965 0 0 -0.139862 -0.0660593 -0.0659994 -0.0181062 0 0 0.58047 0 0 
108 1 108 0.179914 0.299966 0 0 -0.15156 -0.0556597 -0.0664233 -0.0154275 0 0 0.67378 0 0 
109 1 109 0.179899 0.339969 0 0 -0.169978 -0.0563306 -0.0725506 -0.0259595 0 0 1.19513 0 0 
110 1 110 0.179883 0.379975 0 0 -0.179783 -0.0438173 -0.0716766 -0.0121862 0 0 1.14647 0 0 
111 1 111 0.179869 0.419982 0 0 -0.198127 -0.0449255 -0.07791 -0.0111777 0 0 0.984362 0 0 
112 1 112 0.179857 0.459991 0 0 -0.211398 -0.0435588 -0.0817285 0.00294106 0 0 0.644092 0 0 
113 1 113 0.179848 0.500001 0 0 -0.219998 -0.0425396 -0.0841624 0.00738222 0 0 0.283505 0 0 
114 1 114 0.17984 0.54001 0 0 -0.235192 -0.0533284 -0.0924971 0.00975934 0 0 0.466226 0 0 
115 1 115 0.179831 0.58002 0 0 -0.246956 -0.0477027 -0.0944669 0.0099974 0 0 0.506366 0 0 
116 1 116 0.179816 0.620031 0 0 -0.271598 -0.0622566 -0.107048 0.00687986 0 0 0.7427 0 0 
117 1 117 0.179799 0.660042 0 0 -0.269529 -0.040632 -0.0994431 0.00708817 0 0 -0.0728373 0 0 
118 1 118 0.179784 0.700056 0 0 -0.281733 -0.0387128 -0.102749 0.00588328 0 0 -0.321233 0 0 
119 1 119 0.179773 0.740073 0 0 -0.304084 -0.0274111 -0.106293 0.0145275 0 0 -0.693668 0 0 
120 1 120 0.179764 0.780093 0 0 -0.33321 -0.0270419 -0.115526 0.0163462 0 0 0.017213 0 0 
121 1 121 0.179757 0.820115 0 0 -0.361219 -0.0236871 -0.123436 0.0314922 0 0 -0.00832866 0 0 
122 1 122 0.179748 0.860141 0 0 -0.377456 -0.0140517 -0.125553 0.0186737 0 0 0.662763 0 0 
123 1 123 0.179733 0.900168 0 0 -0.377805 -0.00396824 -0.122426 0.0236134 0 0 0.442116 0 0 
124 1 124 0.179715 0.940196 0 0 -0.373622 -0.00326751 -0.12088 0.0117719 0 0 0.346399 0 0 
125 1 125 0.179691 0.980223 0 0 -0.344722 -3.50388e-05 -0.110563 0.0058835 0 0 0.302963 0 0 
126 1 126 0.219992 0.0199949 0 0 -0.047255 -0.0858449 -0.0426484 -0.0407828 0 0 0.586642 0 0 
127 1 127 0.219975 0.0599854 0 0 -0.0614757 -0.0822115 -0.0460414 -0.0341557 0 0 0.720886 0 0 
128 1 128 0.219957 0.0999778 0 0 -0.0731341 -0.0757054 -0.0476988 -0.0298515 0 0 0.295011 0 0 
129 1 129 0.219943 0.139972 0 0 -0.0875829 -0.0707082 -0.0507294 -0.0212731 0 0 0.0350137 0 0 
130 1 130 0.219933 0.179969 0 0 -0.101888 -0.0616989 -0.0524248 -0.0185504 0 0 0.163102 0 0 
131 1 131 0.219923 0.219967 0 0 -0.120413 -0.057057 -0.0568707 -0.0155903 0 0 0.127024 0 0 
132 1 132 0.21991 0.259968 0 0 -0.142156 -0.0558131 -0.0634449 -0.0226993 0 0 0.647082 0 0 
133 1 133 0.219896 0.299971 0 0 -0.154027 -0.0487838 -0.0650053 -0.0167673 0 0 0.677443 0 0 
134 1 134 0.219879 0.339976 0 0 -0.166973 -0.0451433 -0.0679975 -0.0266181 0 0 1.37447 0 0 
135 1 135 0.219861 0.379981 0 0 -0.180365 -0.0415584 -0.0711425 -0.0109412 0 0 1.31769 0 0 
136 1 136 0.219848 0.419989 0 0 -0.193143 -0.036598 -0.0736453 -0.0115077 0 0 1.32065 0 0 
137 1 137 0.219839 0.459998 0 0 -0.209267 -0.0402006 -0.0799746 0.00768663 0 0 1.14541 0 0 
138 1 138 0.219835 0.500008 0 0 -0.22264 -0.0380434 -0.0835745 0.0107297 0 0 1.38533 0 0 
139 1 139 0.219832 0.540018 0 0 -0.245115 -0.0500266 -0.0946272 0.0140067 0 0 1.70944 0 0 
140 1 140 0.219829 0.58003 0 0 -0.255055 -0.0454718 -0.0963551 0.0122953 0 0 1.58134 0 0 
141 1 141 0.219825 0.620043 0 0 -0.278316 -0.0469924 -0.104309 0.000962881 0 0 2.13967 0 0 
142 1 142 0.219816 0.660059 0 0 -0.317967 -0.0567784 -0.120175 0.00278012 0 0 2.09419 0 0 
143 1 143 0.2198 0.700075 0 0 -0.344739 -0.050313 -0.126696 -0.00400439 0 0 2.99032 0 0 
144 1 144 0.219777 0.740095 0 0 -0.363197 -0.0460572 -0.131255 0.00623863 0 0 2.85611 0 0 
145 1 145 0.219754 0.780116 0 0 -0.364245 -0.0280017 -0.125793 0.00867581 0 0 2.91599 0 0 
146 1 146 0.219732 0.820141 0 0 -0.366835 -0.0114964 -0.121322 0.0193853 0 0 2.38405 0 0 
147 1 147 0.21971 0.860167 0 0 -0.375104 -0.00733701 -0.122643 0.0116958 0 0 2.35154 0 0 
148 1 148 0.219687 0.900196 0 0 -0.367045 0.00620357 -0.115704 0.0142284 0 0 1.66476 0 0 
149 1 149 0.219666 0.940223 0 0 -0.356221 -0.00206386 -0.114908 0.0054588 0 0 1.53075 0 0 
150 1 150 0.219643 0.98025 0 0 -0.337145 0.00189999 -0.107511 0.00660789 0 0 1.15715 0 0 
151 1 151 0.259988 0.0199951 0 0 -0.0441306 -0.0828766 -0.0406982 -0.0456742 0 0 0.368322 0 0 
152 1 152 0.259966 0.059986 0 0 -0.0563072 -0.0767687 -0.0426378 -0.042105 0 0 0.352956 0 0 
153 1 153 0.259948 0.0999788 0 0 -0.0718835 -0.0763101 -0.0474879 -0.0343634 0 0 0.0843697 0 0 
154 1 154 0.259934 0.139973 0 0 -0.0820818 -0.0635914 -0.0466797 -0.0293189 0 0 -0.0167112 0 0 
155 1 155 0.259919 0.17997 0 0 -0.103691 -0.060546 -0.0526318 -0.0267287 0 0 0.0184949 0 0 
156 1 156 0.259905 0.21997 0 0 -0.120308 -0.0484663 -0.054081 -0.0249139 0 0 0.0510505 0 0 
157 1 157 0.25989 0.259973 0 0 -0.13492 -0.0414744 -0.0565228 -0.0301214 0 0 0.751751 0 0 
158 1 158 0.259872 0.299977 0 0 -0.145609 -0.0317848 -0.0568487 -0.024154 0 0 0.888437 0 0 
159 1 159 0.259852 0.339984 0 0 -0.163323 -0.0333399 -0.0630338 -0.0353621 0 0 1.56012 0 0 
160 1 160 0.259831 0.379992 0 0 -0.175676 -0.0324922 -0.0667281 -0.0155576 0 0 1.32671 0 0 
161 1 161 0.259813 0.420001 0 0 -0.185519 -0.0277518 -0.0683649 -0.0183005 0 0 1.44565 0 0 
162 1 162 0.259796 0.460011 0 0 -0.205023 -0.0341438 -0.0766762 0.00148374 0 0 0.998374 0 0 
163 1 163 0.259783 0.500022 0 0 -0.213934 -0.0276218 -0.0774449 0.00454749 0 0 0.631278 0 0 
164 1 164 0.25977 0.540034 0 0 -0.231558 -0.0347207 -0.0853712 0.00680856 0 0 0.774237 0 0 
165 1 165 0.259756 0.580047 0 0 -0.255588 -0.0343754 -0.0929674 0.00814584 0 0 0.809901 0 0 
166 1 166 0.259735 0.620061 0 0 -0.270788 -0.0334855 -0.0975582 -0.000362546 0 0 1.35708 0 0 
167 1 167 0.259711 0.660077 0 0 -0.266986 -0.0168584 -0.091 0.00306908 0 0 0.598626 0 0 
168 1 168 0.259689 0.700094 0 0 -0.277123 -0.0134208 -0.0931489 -0.00337378 0 0 0.392138 0 0 
169 1 169 0.259671 0.740115 0 0 -0.291699 0.00283477 -0.0926104 0.0044102 0 0 0.0414384 0 0 
170 1 170 0.259656 0.780138 0 0 -0.327405 -0.00913338 -0.107909 0.00653326 0 0 0.577465 0 0 
171 1 171 0.259643 0.820163 0 0 -0.348767 0.00628071 -0.109813 0.0129325 0 0 0.804015 0 0 
172 1 172 0.259629 0.860191 0 0 -0.36442 -0.00120961 -0.117248 0.00803922 0 0 1.22157 0 0 
173 1 173 0.259615 0.900219 0 0 -0.358939 0.00197695 -0.11446 0.0145083 0 0 0.877463 0 0 
174 1 174 0.2596 0.940246 0 0 -0.351168 -0.000216282 -0.112692 0.0063811 0 0 0.966871 0 0 
175 1 175 0.259583 0.980272 0 0 -0.326152 0.00200547 -0.103947 0.0103757 0 0 0.359462 0 0 
176 1 176 0.29999 0.019995 0 0 -0.0484128 -0.0845186 -0.0425983 -0.0497688 0 0 0.269191 0 0 
177 1 177 0.299968 0.0599859 0 0 -0.0560022 -0.0745885 -0.0418436 -0.0464667 0 0 0.216918 0 0 
178 1 178 0.299946 0.0999789 0 0 -0.0658259 -0.0738269 -0.0447482 -0.0389575 0 0 -0.0593389 0 0 
179 1 179 0.299927 0.139973 0 0 -0.0777506 -0.0603773 -0.0442586 -0.0382549 0 0 -0.221565 0 0 
180 1 180 0.299909 0.179971 0 0 -0.0999024 -0.0584405 -0.0507417 -0.0370926 0 0 0.0565762 0 0 
181 1 181 0.299892 0.219971 0 0 -0.114367 -0.038367 -0.0489387 -0.0358146 0 0 0.33317 0 0 
182 1 182 0.299873 0.259975 0 0 -0.135125 -0.0312193 -0.0533005 -0.0404892 0 0 1.01485 0 0 
183 1 183 0.299853 0.299981 0 0 -0.152599 -0.026332 -0.0573382 -0.033551 0 0 1.11745 0 0 
184 1 184 0.299831 0.339989 0 0 -0.16111 -0.0168193 -0.0570188 -0.0443904 0 0 1.8351 0 0 
185 1 185 0.299809 0.379998 0 0 -0.178384 -0.0265967 -0.0656976 -0.0225279 0 0 1.64718 0 0 
186 1 186 0.299791 0.420009 0 0 -0.188394 -0.0181117 -0.0661919 -0.0253169 0 0 1.84177 0 0 
187 1 187 0.299777 0.460019 0 0 -0.21164 -0.0319642 -0.0780991 -0.00309621 0 0 1.67216 0 0 
188 1 188 0.299769 0.500032 0 0 -0.232157 -0.0249417 -0.0824328 0.00201997 0 0 1.74639 0 0 
189 1 189 0.29976 0.540045 0 0 -0.257724 -0.0377898 -0.0947527 0.00624217 0 0 2.09857 0 0 
190 1 190 0.299752 0.58006 0 0 -0.265366 -0.0244702 -0.0929255 0.00335441 0 0 1.95552 0 0 
191 1 191 0.299741 0.620077 0 0 -0.292543 -0.0344434 -0.104846 -0.00534438 0 0 2.47381 0 0 
192 1 192 0.299726 0.660096 0 0 -0.323697 -0.0335024 -0.114542 -0.0068867 0 0 2.80135 0 0 
193 1 193 0.299703 0.700116 0 0 -0.358657 -0.0426916 -0.128716 -0.0160338 0 0 3.77978 0 0 
194 1 194 0.299674 0.740138 0 0 -0.36953 -0.0319398 -0.128755 -0.00576518 0 0 3.52251 0 0 
195 1 195 0.299645 0.780161 0 0 -0.365909 -0.0202003 -0.123822 -0.00565895 0 0 3.51538 0 0 
196 1 196 0.299617 0.820187 0 0 -0.361935 -0.00507436 -0.117686 0.00221291 0 0 2.98612 0 0 
197 1 197 0.299593 0.860213 0 0 -0.357028 -0.000859515 -0.114764 0.00145693 0 0 2.66907 0 0 
198 1 198 0.299572 0.900241 0 0 -0.344182 0.00617109 -0.108379 0.0083284 0 0 2.07897 0 0 
199 1 199 0.299553 0.940267 0 0 -0.339487 0.000466687 -0.108722 0.00286729 0 0 2.05881 0 0 
200 1 200 0.299536 0.980293 0 0 -0.328553 0.000278404 -0.105269 0.0135042 0 0 1.10928 0 0 
201 1 201 0.339985 0.0199955 0 0 -0.043597 -0.0792166 -0.0393543 -0.054364 0 0 -0.0750356 0 0 
202 1 202 0.339959 0.0599865 0 0 -0.0533043 -0.074022 -0.0407975 -0.0492521 0 0 -0.302703 0 0 
203 1 203 0.339938 0.0999797 0 0 -0.0664877 -0.0730782 -0.0447209 -0.042813 0 0 -0.279875 0 0 
204 1 204 0.339918 0.139974 0 0 -0.0811571 -0.065744 -0.0470719 -0.0453028 0 0 -0.310589 0 0 
205 1 205 0.339896 0.179971 0 0 -0.098548 -0.0559014 -0.0494943 -0.0443975 0 0 0.212165 0 0 
206 1 206 0.339874 0.219972 0 0 -0.116163 -0.0385471 -0.0495755 -0.0453764 0 0 0.618573 0 0 
207 1 207 0.339851 0.259976 0 0 -0.133442 -0.0218173 -0.0497482 -0.0507677 0 0 1.19081 0 0 
208 1 208 0.339828 0.299984 0 0 -0.155502 -0.0208434 -0.0565086 -0.0439313 0 0 1.32097 0 0 
209 1 209 0.339802 0.339994 0 0 -0.161306 -0.00292964 -0.0526272 -0.051591 0 0 1.8881 0 0 
210 1 210 0.339778 0.380005 0 0 -0.179598 -0.0180535 -0.0633431 -0.0335532 0 0 1.6794 0 0 
211 1 211 0.339755 0.420018 0 0 -0.19102 -0.00678618 -0.0633964 -0.0357953 0 0 1.84919 0 0 
212 1 212 0.339733 0.460031 0 0 -0.21426 -0.0237748 -0.0763057 -0.0161617 0 0 1.47792 0 0 
213 1 213 0.339714 0.500045 0 0 -0.222073 -0.00864971 -0.0739651 -0.0127866 0 0 1.12915 0 0 
214 1 214 0.339695 0.540061 0 0 -0.244269 -0.0176341 -0.0839638 -0.00659178 0 0 1.22283 0 0 
215 1 215 0.339675 0.580078 0 0 -0.26664 -0.0129706 -0.0896429 -0.00871677 0 0 1.38752 0 0 
216 1 216 0.339648 0.620095 0 0 -0.28166 -0.0150094 -0.0951182 -0.0114895 0 0 1.79717 0 0 
217 1 217 0.339619 0.660115 0 0 -0.273406 -0.00216343 -0.0883461 -0.00885166 0 0 1.22462 0 0 
218 1 218 0.339591 0.700135 0 0 -0.263027 0.0108453 -0.0808431 -0.0161542 0 0 1.05852 0 0 
219 1 219 0.339567 0.740157 0 0 -0.272436 0.0142816 -0.082758 -0.00837033 0 0 0.625959 0 0 
220 1 220 0.339548 0.780181 0 0 -0.302243 0.00791047 -0.0943656 -0.00931985 0 0 1.02419 0 0 
221 1 221 0.339531 0.820206 0 0 -0.318274 0.0122326 -0.0981192 -0.00340616 0 0 1.12642 0 0 
222 1 222 0.339516 0.860233 0 0 -0.333321 0.00167642 -0.106345 0.000896327 0 0 1.35578 0 0 
223 1 223 0.339503 0.900259 0 0 -0.335264 0.00844656 -0.104792 0.00689552 0 0 1.22289 0 0 
224 1 224 0.33949 0.940285 0 0 -0.333189 0.0029898 -0.105891 0.00290299 0 0 1.50496 0 0 
225 1 225 0.339478 0.980311 0 0 -0.31678 0.00535637 -0.0998583 0.0172972 0 0 0.38653 0 0 
226 1 226 0.379987 0.0199958 0 0 -0.0429561 -0.0735631 -0.0373341 -0.0588661 0 0 -0.123949 0 0 
227 1 227 0.379962 0.0599872 0 0 -0.0543454 -0.0729136 -0.0407741 -0.0506497 0 0 -0.470768 0 0 
228 1 228 0.379936 0.0999807 0 0 -0.0649244 -0.0705574 -0.0434112 -0.0456779 0 0 -0.451647 0 0 
229 1 229 0.37991 0.139975 0 0 -0.0844077 -0.0695653 -0.0493398 -0.0493292 0 0 -0.341797 0 0 
230 1 230 0.379885 0.179972 0 0 -0.103858 -0.0557239 -0.0511413 -0.0486133 0 0 0.387682 0 0 
231 1 231 0.37986 0.219972 0 0 -0.128003 -0.0459829 -0.0557609 -0.050526 0 0 0.800236 0 0 
232 1 232 0.379833 0.259977 0 0 -0.14283 -0.0237394 -0.0533802 -0.0540072 0 0 1.3629 0 0 
233 1 233 0.379806 0.299985 0 0 -0.160323 -0.0150981 -0.0562172 -0.0483165 0 0 1.70974 0 0 
234 1 234 0.379779 0.339997 0 0 -0.167192 0.000969581 -0.053269 -0.0513562 0 0 2.07118 0 0 
235 1 235 0.379754 0.380009 0 0 -0.187099 -0.012075 -0.0638333 -0.039215 0 0 1.98536 0 0 
236 1 236 0.379731 0.420023 0 0 -0.196467 0.00125825 -0.0625625 -0.0400893 0 0 2.23791 0 0 
237 1 237 0.379712 0.460037 0 0 -0.220691 -0.0185608 -0.0766907 -0.020956 0 0 2.16127 0 0 
238 1 238 0.379697 0.500052 0 0 -0.244846 -0.00848903 -0.0812118 -0.0214669 0 0 2.36822 0 0 
239 1 239 0.379682 0.540069 0 0 -0.279101 -0.0242817 -0.0972683 -0.0136414 0 0 2.42628 0 0 
240 1 240 0.379667 0.580088 0 0 -0.283696 -0.00928826 -0.0939322 -0.0206723 0 0 2.41064 0 0 
241 1 241 0.379651 0.620109 0 0 -0.304414 -0.0182223 -0.103453 -0.0264985 0 0 2.87518 0 0 
242 1 242 0.379631 0.660131 0 0 -0.33778 -0.0220197 -0.11538 -0.0317632 0 0 3.5626 0 0 
243 1 243 0.379604 0.700153 0 0 -0.374667 -0.0386787 -0.13257 -0.0365437 0 0 4.37595 0 0 
244 1 244 0.379572 0.740176 0 0 -0.376636 -0.030856 -0.130688 -0.0291938 0 0 4.11205 0 0 
245 1 245 0.379539 0.7802 0 0 -0.362443 -0.0204016 -0.122776 -0.0254541 0 0 3.88268 0 0 
246 1 246 0.379509 0.820225 0 0 -0.346872 -0.00667798 -0.113371 -0.0136891 0 0 3.10665 0 0 
247 1 247 0.379483 0.86025 0 0 -0.339812 -0.00165412 -0.109502 -0.0101206 0 0 2.91901 0 0 
248 1 248 0.379462 0.900276 0 0 -0.332821 0.00603226 -0.104789 0.00199187 0 0 2.34886 0 0 
249 1 249 0.379445 0.940302 0 0 -0.332088 0.00307945 -0.105512 -0.00143761 0 0 2.36626 0 0 
250 1 250 0.379431 0.980327 0 0 -0.333822 -0.000259209 -0.107131 0.0153071 0 0 1.1011 0 0 
251 1 251 0.419983 0.0199965 0 0 -0.0304624 -0.0600446 -0.0289946 -0.0620041 0 0 -0.335282 0 0 
252 1 252 0.419953 0.0599893 0 0 -0.0430153 -0.0615755 -0.0335052 -0.053928 0 0 -0.828665 0 0 
253 1 253 0.419928 0.0999833 0 0 -0.0682238 -0.0688522 -0.0439216 -0.0500097 0 0 -0.493216 0 0 
254 1 254 0.419901 0.139978 0 0 -0.090373 -0.068235 -0.0508273 -0.0527124 0 0 -0.238423 0 0 
255 1 255 0.419871 0.179976 0 0 -0.111103 -0.0591712 -0.0545718 -0.0538985 0 0 0.556782 0 0 
256 1 256 0.41984 0.219976 0 0 -0.136117 -0.0498737 -0.0596126 -0.0564983 0 0 1.16779 0 0 
257 1 257 0.419809 0.259981 0 0 -0.150969 -0.0283686 -0.0574775 -0.0570636 0 0 1.591 0 0 
258 1 258 0.419779 0.299989 0 0 -0.167608 -0.0175659 -0.0593488 -0.0545182 0 0 1.84102 0 0 
259 1 259 0.419748 0.340001 0 0 -0.173292 0.00118016 -0.0551602 -0.0549165 0 0 1.89582 0 0 
260 1 260 0.41972 0.380014 0 0 -0.188664 -0.00930606 -0.0634499 -0.0480504 0 0 1.76959 0 0 
261 1 261 0.419692 0.420029 0 0 -0.19282 0.00975766 -0.0586693 -0.0498693 0 0 2.04231 0 0 
262 1 262 0.419665 0.460045 0 0 -0.215941 -0.0109779 -0.0727347 -0.035253 0 0 1.80563 0 0 
263 1 263 0.419639 0.500062 0 0 -0.222801 0.00742656 -0.0690334 -0.0421882 0 0 1.72789 0 0 
264 1 264 0.419614 0.54008 0 0 -0.246885 -0.00267014 -0.079996 -0.0323341 0 0 1.59334 0 0 
265 1 265 0.419587 0.5801 0 0 -0.269896 0.00447595 -0.0850862 -0.0381862 0 0 1.97995 0 0 
266 1 266 0.419555 0.62012 0 0 -0.290086 -0.00638067 -0.0950544 -0.0381171 0 0 2.27184 0 0 
267 1 267 0.419521 0.660141 0 0 -0.272495 0.0168847 -0.0819441 -0.0397658 0 0 1.95276 0 0 
268 1 268 0.41949 0.700164 0 0 -0.256622 0.0232151 -0.0748206 -0.0398035 0 0 1.51572 0 0 
269 1 269 0.419464 0.740188 0 0 -0.262711 0.0279996 -0.0752361 -0.0344512 0 0 1.1227 0 0 
270 1 270 0.419442 0.780213 0 0 -0.291081 0.0193527 -0.0871152 -0.0300496 0 0 1.34586 0 0 
271 1 271 0.419424 0.820238 0 0 -0.305634 0.0139776 -0.0935091 -0.0159419 0 0 1.1219 0 0 
272 1 272 0.419408 0.860264 0 0 -0.316461 0.0114935 -0.0977897 -0.0120466 0 0 1.53278 0 0 
273 1 273 0.419395 0.90029 0 0 -0.322075 0.0110818 -0.0997228 0.00157541 0 0 1.29232 0 0 
274 1 274 0.419383 0.940316 0 0 -0.323464 0.00449095 -0.102293 -0.00266087 0 0 1.6773 0 0 
275 1 275 0.419372 0.980342 0 0 -0.321506 0.00926546 -0.100121 0.0134399 0 0 0.499302 0 0 
276 1 276 0.459986 0.0199973 0 0 -0.0336088 -0.0517454 -0.0273444 -0.0654997 0 0 -0.24568 0 0 
277 1 277 0.459956 0.0599912 0 0 -0.051987 -0.0578413 -0.0351844 -0.0584525 0 0 -0.773421 0 0 
278 1 278 0.459924 0.0999867 0 0 -0.069689 -0.0604009 -0.0416827 -0.0552928 0 0 -0.428729 0 0 
279 1 279 0.459892 0.139983 0 0 -0.0940741 -0.0632725 -0.0504245 -0.0571077 0 0 -0.0895052 0 0 
280 1 280 0.459858 0.179981 0 0 -0.119302 -0.0602205 -0.0575379 -0.0584999 0 0 0.707065 0 0 
281 1 281 0.459824 0.219981 0 0 -0.143757 -0.0564971 -0.064186 -0.0602822 0 0 1.2992 0 0 
282 1 282 0.459788 0.259986 0 0 -0.156976 -0.0320883 -0.0605965 -0.0603235 0 0 1.57984 0 0 
283 1 283 0.459755 0.299993 0 0 -0.177816 -0.0311011 -0.0669628 -0.0577752 0 0 1.81309 0 0 
284 1 284 0.459724 0.340004 0 0 -0.175412 -0.00100919 -0.0565408 -0.0551959 0 0 1.90421 0 0 
285 1 285 0.459695 0.380017 0 0 -0.191146 -0.00933721 -0.0642558 -0.0526525 0 0 2.03953 0 0 
286 1 286 0.459667 0.420031 0 0 -0.192285 0.00955069 -0.0585624 -0.0513941 0 0 2.24606 0 0 
287 1 287 0.459644 0.460047 0 0 -0.214076 -0.00598103 -0.0705362 -0.0418549 0 0 2.30976 0 0 
288 1 288 0.459622 0.500063 0 0 -0.239738 0.00183795 -0.0762631 -0.0484883 0 0 2.78247 0 0 
289 1 289 0.459599 0.540082 0 0 -0.270428 -0.0119759 -0.0905367 -0.0386824 0 0 2.798 0 0 
290 1 290 0.459578 0.580102 0 0 -0.281824 0.00010646 -0.0903148 -0.0511746 0 0 2.96998 0 0 
291 1 291 0.459556 0.620124 0 0 -0.309722 -0.0139491 -0.103782 -0.0536257 0 0 3.17994 0 0 
292 1 292 0.459533 0.660148 0 0 -0.347938 -0.0130896 -0.115773 -0.0637151 0 0 4.10639 0 0 
293 1 293 0.459502 0.700172 0 0 -0.394083 -0.0353955 -0.13775 -0.0601466 0 0 4.73297 0 0 
294 1 294 0.459468 0.740198 0 0 -0.392235 -0.0207927 -0.132464 -0.0553596 0 0 4.62957 0 0 
295 1 295 0.459433 0.780224 0 0 -0.378186 -0.0155651 -0.126279 -0.0439193 0 0 4.08236 0 0 
296 1 296 0.459402 0.820251 0 0 -0.359552 -0.00331994 -0.116364 -0.0260497 0 0 3.02236 0 0 
297 1 297 0.459376 0.860277 0 0 -0.351596 0.00137031 -0.112314 -0.0245347 0 0 3.07331 0 0 
298 1 298 0.459355 0.900304 0 0 -0.346364 -0.00148607 -0.111551 -0.00264393 0 0 2.17581 0 0 
299 1 299 0.459339 0.940329 0 0 -0.342205 -0.00192491 -0.110366 -0.00964185 0 0 2.34352 0 0 
300 1 300 0.459324 0.980356 0 0 -0.35024 -0.00248304 -0.113113 0.00686233 0 0 1.20946 0 0 
301 1 301 0.499982 0.0199981 0 0 -0.018241 -0.0356178 -0.0172504 -0.069775 0 0 -0.257935 0 0 
302 1 302 0.499947 0.0599937 0 0 -0.0370415 -0.0404902 -0.024833 -0.0664729 0 0 -0.786002 0 0 
303 1 303 0.499914 0.0999911 0 0 -0.070804 -0.0480947 -0.0380964 -0.0639321 0 0 -0.269887 0 0 
304 1 304 0.49988 0.139989 0 0 -0.101556 -0.0575266 -0.0509816 -0.0644608 0 0 0.104549 0 0 
305 1 305 0.499842 0.179989 0 0 -0.126386 -0.0579354 -0.0590773 -0.0665994 0 0 0.807734 0 0 
306 1 306 0.499802 0.219989 0 0 -0.15391 -0.0652238 -0.0702421 -0.0667591 0 0 1.46518 0 0 
307 1 307 0.499764 0.259993 0 0 -0.159839 -0.0404823 -0.0642053 -0.0668187 0 0 1.75125 0 0 
308 1 308 0.499727 0.299999 0 0 -0.177802 -0.0393505 -0.0696016 -0.0659545 0 0 1.84433 0 0 
309 1 309 0.499692 0.340009 0 0 -0.176426 -0.0109068 -0.0600372 -0.0581331 0 0 1.58145 0 0 
310 1 310 0.499661 0.380021 0 0 -0.179482 -0.0057029 -0.059346 -0.0623434 0 0 1.74484 0 0 
311 1 311 0.499629 0.420035 0 0 -0.185837 0.00728934 -0.0572184 -0.0616864 0 0 1.76244 0 0 
312 1 312 0.499598 0.460051 0 0 -0.204087 0.00101671 -0.065089 -0.0584468 0 0 1.77467 0 0 
313 1 313 0.499565 0.500069 0 0 -0.209664 0.0175309 -0.0615843 -0.067446 0 0 1.8704 0 0 
314 1 314 0.499532 0.540087 0 0 -0.235311 0.00139757 -0.0749809 -0.0577813 0 0 1.5542 0 0 
315 1 315 0.499498 0.580106 0 0 -0.262675 0.00976682 -0.0810715 -0.0695055 0 0 2.43092 0 0 
316 1 316 0.49946 0.620127 0 0 -0.288787 -0.00264525 -0.0934342 -0.0609821 0 0 2.54563 0 0 
317 1 317 0.499421 0.66015 0 0 -0.269326 0.0287453 -0.0771193 -0.0678817 0 0 2.48349 0 0 
318 1 318 0.499386 0.700174 0 0 -0.260767 0.0336889 -0.0727891 -0.0588295 0 0 1.86817 0 0 
319 1 319 0.499357 0.740201 0 0 -0.267588 0.0507711 -0.069496 -0.0567216 0 0 1.56205 0 0 
320 1 320 0.499333 0.78023 0 0 -0.303055 0.0304423 -0.0873999 -0.0454206 0 0 1.64069 0 0 
321 1 321 0.499315 0.820258 0 0 -0.320411 0.0251357 -0.094668 -0.0258923 0 0 1.19552 0 0 
322 1 322 0.499299 0.860286 0 0 -0.331129 0.0172009 -0.100661 -0.0262431 0 0 1.67034 0 0 
323 1 323 0.499285 0.900314 0 0 -0.337197 0.00759605 -0.10569 -0.00213851 0 0 1.05539 0 0 
324 1 324 0.499275 0.940341 0 0 -0.336745 0.00479333 -0.106452 -0.0103939 0 0 1.62178 0 0 
325 1 325 0.499263 0.980367 0 0 -0.333736 0.00829422 -0.104355 0.00416125 0 0 0.670626 0 0 