ITEM: TIMESTEP
0
ITEM: NUMBER OF ATOMS
6875
ITEM: BOX BOUNDS sm sm sm
0 4
0 2
0 0
ITEM: ATOMS id type tag x y z damage s11 s22 s33 s12 s13 s23 vx T ienergy 
1 1 1 0.0199981 0.0199992 0 0 -0.0270662 -0.0208557 -0.0153503 -0.00860969 0 0 -0.31731 0 0 
2 1 2 0.0199964 0.0599983 0 0 -0.0491124 -0.0232198 -0.0231676 -0.00678975 0 0 -0.598158 0 0 
3 1 3 0.0199958 0.0999984 0 0 -0.0557545 -0.0311203 -0.0278307 -0.00693424 0 0 -0.684685 0 0 
4 1 4 0.0199968 0.139996 0 0 -0.0560169 -0.0464222 -0.0328212 -0.0135378 0 0 -0.816846 0 0 
5 1 5 0.0199976 0.179993 0 0 -0.0439758 -0.0449344 -0.0284834 -0.0288985 0 0 -0.637195 0 0 
6 1 6 0.0199991 0.219988 0 0 -0.0301978 -0.0472932 -0.0248224 -0.046808 0 0 -0.621463 0 0 
7 1 7 0.0199993 0.259984 0 0 -0.0182629 -0.0362169 -0.0174459 -0.0717635 0 0 -0.587485 0 0 
8 1 8 0.0199997 0.299979 0 0 -0.0163679 -0.0387139 -0.0176364 -0.0886287 0 0 -0.675057 0 0 
9 1 9 0.0199991 0.339975 0 0 -0.0123881 -0.0193143 -0.010142 -0.109678 0 0 -0.476106 0 0 
10 1 10 0.0199987 0.379974 0 0 -0.013138 -0.0043199 -0.00557618 -0.108717 0 0 -0.451256 0 0 
11 1 11 0.0199981 0.419975 0 0 -0.0152185 0.00553316 -0.00308539 -0.108435 0 0 -0.151849 0 0 
12 1 12 0.0199983 0.459979 0 0 -0.00301165 0.0295959 0.00853366 -0.0864737 0 0 -0.0456374 0 0 
13 1 13 0.0199987 0.499983 0 0 0.00547279 0.0220757 0.00884139 -0.0727329 0 0 0.147716 0 0 
14 1 14 0.0199984 0.539986 0 0 0.0164043 0.0326681 0.0157342 -0.0563733 0 0 -0.0683048 0 0 
15 1 15 0.0199972 0.57999 0 0 0.0200374 0.0234031 0.0139289 -0.0437749 0 0 -0.593324 0 0 
16 1 16 0.0199958 0.619992 0 0 0.0180204 0.0294697 0.0152243 -0.035696 0 0 -0.796538 0 0 
17 1 17 0.0199943 0.659995 0 0 0.00817667 0.0195581 0.00889513 -0.0195579 0 0 -1.20262 0 0 
18 1 18 0.0199954 0.699997 0 0 0.0094378 0.0155037 0.00800032 -0.0113101 0 0 -1.09096 0 0 
19 1 19 0.0199947 0.74 0 0 -0.0103699 0.0148837 0.0014564 -0.00770556 0 0 -0.619314 0 0 
20 1 20 0.0199966 0.780002 0 0 -0.00697729 -0.00190838 -0.00283574 0.0168217 0 0 -0.913055 0 0 
21 1 21 0.0199969 0.820004 0 0 -0.00539486 0.0325057 0.0086972 0.00302969 0 0 0.387154 0 0 
22 1 22 0.0199951 0.860008 0 0 -0.0515312 -0.0224498 -0.0236965 0.0398445 0 0 -0.490809 0 0 
23 1 23 0.019999 0.900008 0 0 0.0061286 0.0108854 0.00546341 0.0400329 0 0 -0.476686 0 0 
24 1 24 0.0199988 0.940009 0 0 -0.0183393 0.00106638 -0.0055289 0.0282214 0 0 0.671014 0 0 
25 1 25 0.0199975 0.98001 0 0 -0.0104542 -0.0337738 -0.024142 0.0412634 0 0 -0.721569 0 0 
26 1 26 0.0599953 0.0199967 0 0 -0.0487221 -0.0592902 -0.0346099 -0.0256097 0 0 -0.427212 0 0 
27 1 27 0.0599923 0.0599925 0 0 -0.050563 -0.0402604 -0.0290982 -0.0183642 0 0 -1.00164 0 0 
28 1 28 0.0599925 0.0999891 0 0 -0.0383595 -0.0469247 -0.0273212 -0.0288961 0 0 -1.7311 0 0 
29 1 29 0.0599952 0.139983 0 0 -0.0305455 -0.0674481 -0.0313928 -0.0339481 0 0 -2.56165 0 0 
30 1 30 0.0599981 0.179974 0 0 -0.00944029 -0.0622275 -0.0229571 -0.0441109 0 0 -2.00975 0 0 
31 1 31 0.0600021 0.219963 0 0 -0.00397412 -0.0821448 -0.0275895 -0.0484568 0 0 -1.86986 0 0 
32 1 32 0.0600031 0.259951 0 0 0.0110555 -0.0574831 -0.0148689 -0.0688861 0 0 -1.10028 0 0 
33 1 33 0.0600036 0.299941 0 0 -0.00143277 -0.0717673 -0.0234485 -0.0669618 0 0 -0.994086 0 0 
34 1 34 0.0600005 0.339932 0 0 -0.00665036 -0.0296515 -0.0116219 -0.0894576 0 0 -0.487715 0 0 
35 1 35 0.0599965 0.379931 0 0 -0.0280162 -1.00234e-05 -0.00896807 -0.0716359 0 0 -0.612331 0 0 
36 1 36 0.059993 0.419935 0 0 -0.050059 0.0115573 -0.0123239 -0.0758942 0 0 -0.129907 0 0 
37 1 37 0.0599929 0.459945 0 0 -0.0290206 0.0676784 0.0123959 -0.0423566 0 0 0.0391535 0 0 
38 1 38 0.0599965 0.499955 0 0 -0.0298743 0.0320578 0.000710343 -0.0419489 0 0 0.685223 0 0 
39 1 39 0.0599999 0.539963 0 0 -0.000303636 0.0623013 0.019871 -0.0308799 0 0 1.28575 0 0 
40 1 40 0.0600031 0.579972 0 0 -0.00383659 0.0333562 0.00946835 -0.0287876 0 0 1.4254 0 0 
41 1 41 0.0600042 0.619978 0 0 0.000740134 0.0475708 0.015487 -0.0327486 0 0 2.42003 0 0 
42 1 42 0.060003 0.659985 0 0 -0.00957589 0.0365269 0.00864543 -0.0206637 0 0 2.08148 0 0 
43 1 43 0.0600032 0.699991 0 0 -0.0167498 0.0203944 0.00117782 -0.0147411 0 0 2.09096 0 0 
44 1 44 0.0599994 0.739996 0 0 -0.00701097 0.0400559 0.0105961 -0.0272922 0 0 2.33189 0 0 
45 1 45 0.0599976 0.780002 0 0 -0.0447891 -0.00797358 -0.0168974 0.00913884 0 0 1.20626 0 0 
46 1 46 0.0599958 0.820007 0 0 -0.0226086 0.051861 0.0093828 -0.0360476 0 0 2.8336 0 0 
47 1 47 0.0599905 0.860014 0 0 -0.0424209 0.00290838 -0.0126525 0.0134436 0 0 1.41818 0 0 
48 1 48 0.0599977 0.900018 0 0 -0.0321994 0.0148684 -0.00553726 0.021902 0 0 0.584816 0 0 
49 1 49 0.0599967 0.940022 0 0 -0.00914168 0.0184927 0.00300767 -0.00561554 0 0 1.50223 0 0 
50 1 50 0.0599978 0.980023 0 0 0.0327075 -0.00123667 0.01009 0.0443529 0 0 -2.10655 0 0 
51 1 51 0.0999938 0.0199946 0 0 -0.0320349 -0.0795499 -0.0357665 -0.0266505 0 0 -0.463341 0 0 
52 1 52 0.0999893 0.059985 0 0 -0.0190058 -0.0682969 -0.0279754 -0.00954967 0 0 -2.02262 0 0 
53 1 53 0.0999907 0.099974 0 0 -0.0214986 -0.0821455 -0.0332081 -0.0268068 0 0 -3.56963 0 0 
54 1 54 0.0999959 0.139963 0 0 -0.00859781 -0.0770583 -0.0274406 -0.0269033 0 0 -4.45382 0 0 
55 1 55 0.100002 0.17995 0 0 0.0033995 -0.0744211 -0.0227518 -0.0387977 0 0 -3.27407 0 0 
56 1 56 0.100007 0.219937 0 0 -0.00263144 -0.0937257 -0.0308718 -0.0373696 0 0 -3.12292 0 0 
57 1 57 0.100009 0.259924 0 0 0.0116396 -0.0612118 -0.0158777 -0.0540186 0 0 -2.04573 0 0 
58 1 58 0.100007 0.299913 0 0 -0.00950519 -0.0740412 -0.0267676 -0.044243 0 0 -1.92127 0 0 
59 1 59 0.1 0.339906 0 0 -0.0178458 -0.029298 -0.0150995 -0.0675136 0 0 -1.17731 0 0 
60 1 60 0.0999895 0.379907 0 0 -0.0393904 0.0140998 -0.00809409 -0.0469434 0 0 -1.03963 0 0 
61 1 61 0.0999816 0.419913 0 0 -0.0709391 0.0122446 -0.018798 -0.048917 0 0 -0.542632 0 0 
62 1 62 0.0999797 0.459925 0 0 -0.0493455 0.0825092 0.0106328 -0.014857 0 0 -0.00147238 0 0 
63 1 63 0.0999851 0.499938 0 0 -0.0625475 0.026049 -0.0116872 -0.0139649 0 0 0.521192 0 0 
64 1 64 0.09999 0.539949 0 0 -0.0127831 0.0734146 0.0194326 -0.0100184 0 0 1.1599 0 0 
65 1 65 0.0999926 0.579959 0 0 -0.00811189 0.0415579 0.0107261 -0.0140167 0 0 0.0595462 0 0 
66 1 66 0.0999914 0.619967 0 0 0.0159474 0.0618994 0.0249477 -0.0247299 0 0 -0.00592668 0 0 
67 1 67 0.0999895 0.659975 0 0 0.0202821 0.0526364 0.0233705 -0.0185232 0 0 -0.846558 0 0 
68 1 68 0.0999908 0.699982 0 0 0.0228924 0.0529681 0.0243113 -0.0193096 0 0 -0.370298 0 0 
69 1 69 0.0999897 0.739988 0 0 0.021127 0.0408521 0.0198636 -0.0362847 0 0 0.668532 0 0 
70 1 70 0.099988 0.779994 0 0 -0.000572511 0.0362862 0.0114496 -0.0209813 0 0 0.897657 0 0 
71 1 71 0.0999847 0.82 0 0 -0.0259872 0.0319251 0.00191189 -0.049385 0 0 2.39673 0 0 
72 1 72 0.0999817 0.860007 0 0 -0.0288288 0.02675 -0.00065972 -0.0141593 0 0 1.69575 0 0 
73 1 73 0.0999885 0.900014 0 0 -0.0438731 0.0384893 -0.00171258 -0.0128617 0 0 1.2917 0 0 
74 1 74 0.0999915 0.940022 0 0 -0.0315101 0.00529617 -0.00838241 -0.0206708 0 0 1.01062 0 0 
75 1 75 0.100001 0.980023 0 0 0.0124121 0.00633461 0.00602137 0.0328177 0 0 -2.04644 0 0 
76 1 76 0.139997 0.0199937 0 0 -0.0214385 -0.0890515 -0.0354132 -0.017227 0 0 -0.156267 0 0 
77 1 77 0.139995 0.0599793 0 0 -0.00736004 -0.10245 -0.0351896 -0.00325341 0 0 -1.77038 0 0 
78 1 78 0.139998 0.0999634 0 0 -0.00209444 -0.0985454 -0.0322521 -0.00699666 0 0 -3.73901 0 0 
79 1 79 0.140003 0.139949 0 0 0.00925691 -0.0798735 -0.0226261 0.00201159 0 0 -5.1185 0 0 
80 1 80 0.14001 0.179935 0 0 0.014156 -0.0767458 -0.0200525 -0.00569437 0 0 -4.3474 0 0 
81 1 81 0.140015 0.219922 0 0 0.00777756 -0.0816056 -0.0236527 -0.00460216 0 0 -3.9213 0 0 
82 1 82 0.140016 0.25991 0 0 0.0120421 -0.0507868 -0.0124087 -0.0175296 0 0 -2.64612 0 0 
83 1 83 0.140011 0.299902 0 0 -0.0159234 -0.0584476 -0.0238268 -0.0185009 0 0 -2.2432 0 0 
84 1 84 0.139999 0.339897 0 0 -0.0305306 -0.0238308 -0.0174117 -0.038272 0 0 -1.51283 0 0 
85 1 85 0.139982 0.379899 0 0 -0.0497316 0.0115468 -0.0122248 -0.0330676 0 0 -0.959494 0 0 
86 1 86 0.13997 0.419905 0 0 -0.0762996 0.0108189 -0.0209714 -0.0240034 0 0 -0.560593 0 0 
87 1 87 0.139967 0.459916 0 0 -0.0528614 0.0671572 0.00458979 -0.000709332 0 0 0.369194 0 0 
88 1 88 0.139974 0.499929 0 0 -0.0652868 0.03613 -0.00933417 0.00751197 0 0 1.00807 0 0 
89 1 89 0.139985 0.539941 0 0 -0.026577 0.0661083 0.0126741 0.0100056 0 0 1.99195 0 0 
90 1 90 0.139993 0.579951 0 0 -0.0310313 0.0363916 0.00172674 -0.00445449 0 0 2.12023 0 0 
91 1 91 0.139997 0.61996 0 0 -0.0201496 0.0449056 0.00793968 -0.0120767 0 0 2.39875 0 0 
92 1 92 0.139998 0.659967 0 0 -0.0236617 0.0172417 -0.00204789 -0.0124846 0 0 2.30808 0 0 
93 1 93 0.139998 0.699972 0 0 -0.0149751 0.0352566 0.00650597 -0.0180678 0 0 2.43389 0 0 
94 1 94 0.139995 0.739977 0 0 -0.0229773 -0.00201249 -0.00799882 -0.0332031 0 0 2.68253 0 0 
95 1 95 0.13999 0.77998 0 0 -0.0187096 0.0319955 0.00426388 -0.0404341 0 0 3.18405 0 0 
96 1 96 0.139981 0.819986 0 0 -0.0370052 0.0100465 -0.00862873 -0.0558657 0 0 3.9513 0 0 
97 1 97 0.139977 0.859991 0 0 -0.0462169 0.00575497 -0.0129553 -0.0327725 0 0 3.08639 0 0 
98 1 98 0.139979 0.899997 0 0 -0.0541008 0.0286096 -0.00815622 -0.0466643 0 0 2.27157 0 0 
99 1 99 0.139985 0.940004 0 0 -0.0470588 -0.00533081 -0.0167793 -0.0326991 0 0 0.494438 0 0 
100 1 100 0.140001 0.980006 0 0 -0.00465333 0.0237495 0.00612986 -0.011018 0 0 -0.791889 0 0 
101 1 101 0.18 0.0199928 0 0 -0.0226201 -0.101015 -0.0396169 -0.00116911 0 0 -0.380863 0 0 
102 1 102 0.180001 0.0599764 0 0 0.000129798 -0.110214 -0.035274 0.00343395 0 0 -2.15776 0 0 
103 1 103 0.180003 0.0999602 0 0 0.0081659 -0.088304 -0.0256806 0.0067862 0 0 -4.38917 0 0 
104 1 104 0.180009 0.139946 0 0 -0.00136234 -0.0866813 -0.0282148 0.0187883 0 0 -5.70355 0 0 
105 1 105 0.180016 0.179933 0 0 0.00608641 -0.0685467 -0.020014 0.0221513 0 0 -5.17217 0 0 
106 1 106 0.180021 0.219921 0 0 0.00460427 -0.0728794 -0.021874 0.0185805 0 0 -4.48541 0 0 
107 1 107 0.18002 0.259912 0 0 0.0117006 -0.0398302 -0.00900714 0.00717834 0 0 -3.4006 0 0 
108 1 108 0.180012 0.299905 0 0 -0.00627556 -0.0408438 -0.0150922 -0.00600304 0 0 -2.86477 0 0 
109 1 109 0.179995 0.339902 0 0 -0.0175794 -0.00979429 -0.00876262 -0.0232497 0 0 -2.19476 0 0 
110 1 110 0.179974 0.379903 0 0 -0.0342483 -0.00149301 -0.0114407 -0.026531 0 0 -1.50154 0 0 
111 1 111 0.179958 0.419907 0 0 -0.0478731 0.0180899 -0.0095295 -0.0140726 0 0 -0.900383 0 0 
112 1 112 0.179954 0.459915 0 0 -0.0565443 0.0281222 -0.00909524 0.0103001 0 0 -0.104727 0 0 
113 1 113 0.179959 0.499925 0 0 -0.0623147 0.0387593 -0.00753747 0.011899 0 0 0.84786 0 0 
114 1 114 0.179971 0.539936 0 0 -0.0514233 0.0494542 -0.000620864 0.0244323 0 0 0.551005 0 0 
115 1 115 0.179979 0.579946 0 0 -0.0300026 0.0331037 0.00100112 -0.00252053 0 0 0.304508 0 0 
116 1 116 0.179982 0.619954 0 0 0.00933797 0.0567613 0.021179 -0.00269808 0 0 -0.591451 0 0 
117 1 117 0.179985 0.65996 0 0 0.0194655 0.0248688 0.0142087 -0.0121436 0 0 -0.919401 0 0 
118 1 118 0.179986 0.699963 0 0 0.0329311 0.0479909 0.025928 -0.0161516 0 0 -0.282771 0 0 
119 1 119 0.179987 0.739966 0 0 0.0157178 0.00305021 0.00602156 -0.0256332 0 0 0.444338 0 0 
120 1 120 0.179982 0.779967 0 0 0.0157787 0.0299531 0.0146597 -0.0509486 0 0 2.40132 0 0 
121 1 121 0.179974 0.819969 0 0 -0.0103107 -0.00915808 -0.00622736 -0.053183 0 0 2.7472 0 0 
122 1 122 0.17997 0.859969 0 0 -0.0120735 0.00238245 -0.00309405 -0.0558664 0 0 2.84339 0 0 
123 1 123 0.179969 0.899971 0 0 -0.0502955 -0.00407833 -0.017414 -0.0604583 0 0 2.05676 0 0 
124 1 124 0.179975 0.939975 0 0 -0.0701397 -0.0205715 -0.0290686 -0.0322834 0 0 0.205121 0 0 
125 1 125 0.179994 0.979978 0 0 -0.0826485 0.00306998 -0.0254968 -0.0234874 0 0 1.08403 0 0 
126 1 126 0.220004 0.0199927 0 0 -0.0262264 -0.101684 -0.0409891 0.0184118 0 0 0.0661423 0 0 
127 1 127 0.22001 0.0599777 0 0 -0.0111201 -0.108172 -0.0382218 0.0116038 0 0 -1.22826 0 0 
128 1 128 0.220012 0.0999622 0 0 -0.00909164 -0.0860755 -0.0304924 0.0124947 0 0 -3.57077 0 0 
129 1 129 0.220016 0.13995 0 0 -0.00672299 -0.0742811 -0.025957 0.0282706 0 0 -5.01938 0 0 
130 1 130 0.220023 0.17994 0 0 0.00716125 -0.0537757 -0.014936 0.0367019 0 0 -5.27299 0 0 
131 1 131 0.220028 0.219931 0 0 0.0119349 -0.0483996 -0.0116801 0.0304506 0 0 -4.895 0 0 
132 1 132 0.220026 0.259923 0 0 0.00437703 -0.0432318 -0.0124438 0.0168048 0 0 -3.98857 0 0 
133 1 133 0.220015 0.299917 0 0 0.00222765 -0.0180633 -0.00506665 0.00235328 0 0 -3.48925 0 0 
134 1 134 0.219995 0.339915 0 0 -0.0136105 -0.0183224 -0.0102247 -0.0186023 0 0 -2.72798 0 0 
135 1 135 0.219971 0.379914 0 0 -0.0198469 -0.0108551 -0.00982854 -0.0172762 0 0 -1.93844 0 0 
136 1 136 0.219952 0.419915 0 0 -0.0219579 0.00492062 -0.00544884 -0.0124156 0 0 -0.801127 0 0 
137 1 137 0.219945 0.459918 0 0 -0.0461638 0.00194698 -0.01416 0.015314 0 0 -0.132653 0 0 
138 1 138 0.21995 0.499924 0 0 -0.0525958 0.0218651 -0.00983874 0.0150087 0 0 1.04865 0 0 
139 1 139 0.219962 0.539933 0 0 -0.0614889 0.0347066 -0.0085743 0.0302007 0 0 1.14015 0 0 
140 1 140 0.219976 0.579942 0 0 -0.079058 0.00571673 -0.0234982 0.00624515 0 0 1.77719 0 0 
141 1 141 0.219985 0.619948 0 0 -0.0655369 0.0103829 -0.0176722 0.00662151 0 0 1.73786 0 0 
142 1 142 0.219992 0.659952 0 0 -0.0720013 -0.0258301 -0.0313492 -0.00774025 0 0 1.86506 0 0 
143 1 143 0.219993 0.699954 0 0 -0.0524155 -0.00298082 -0.0177446 -0.0183898 0 0 2.3285 0 0 
144 1 144 0.219993 0.739956 0 0 -0.0500071 -0.0319212 -0.0262464 -0.0175968 0 0 2.17105 0 0 
145 1 145 0.219986 0.779955 0 0 -0.0225875 -0.0114024 -0.0108801 -0.0544422 0 0 3.86593 0 0 
146 1 146 0.219976 0.819952 0 0 -0.0282028 -0.0563922 -0.0270983 -0.0389492 0 0 3.10168 0 0 
147 1 147 0.219971 0.859947 0 0 -0.0212501 -0.0249616 -0.0147995 -0.0618288 0 0 3.34213 0 0 
148 1 148 0.219963 0.899945 0 0 -0.0534674 -0.0298817 -0.0267025 -0.0614453 0 0 2.2608 0 0 
149 1 149 0.219965 0.939946 0 0 -0.083044 -0.0234265 -0.0341218 -0.0245111 0 0 0.499297 0 0 
150 1 150 0.219976 0.979953 0 0 -0.140152 0.00643677 -0.0428524 -0.0312523 0 0 2.30073 0 0 
151 1 151 0.260007 0.0199937 0 0 -0.0237802 -0.0887117 -0.0360492 0.0319126 0 0 0.0650095 0 0 
152 1 152 0.260015 0.0599809 0 0 -0.00806894 -0.0898803 -0.0313797 0.0116218 0 0 -1.20938 0 0 
153 1 153 0.260015 0.0999678 0 0 -0.0106566 -0.0767577 -0.0280049 0.0133411 0 0 -3.21662 0 0 
154 1 154 0.260018 0.139958 0 0 -0.00644404 -0.0505421 -0.0182546 0.033957 0 0 -4.46925 0 0 
155 1 155 0.260026 0.17995 0 0 -0.00892107 -0.0561475 -0.0208464 0.0424194 0 0 -5.20713 0 0 
156 1 156 0.260032 0.219944 0 0 0.012718 -0.0170198 -0.00137158 0.0341897 0 0 -5.23367 0 0 
157 1 157 0.260029 0.259939 0 0 -0.00320603 -0.0505547 -0.0172186 0.0173562 0 0 -4.63074 0 0 
158 1 158 0.260016 0.299934 0 0 0.0181193 0.00616816 0.00779016 0.00211903 0 0 -4.26338 0 0 
159 1 159 0.259995 0.339932 0 0 -0.0013264 -0.0309414 -0.0103311 -0.0213112 0 0 -3.47593 0 0 
160 1 160 0.25997 0.379927 0 0 0.00448888 -0.0207301 -0.00519588 -0.0193559 0 0 -2.57369 0 0 
161 1 161 0.25995 0.419924 0 0 -0.000239072 -0.0139983 -0.00455471 -0.0232834 0 0 -1.35237 0 0 
162 1 162 0.259939 0.459922 0 0 -0.0371066 -0.0341044 -0.0228165 -0.00238675 0 0 -0.674047 0 0 
163 1 163 0.259938 0.499923 0 0 -0.052712 0.00913865 -0.0139591 0.000777023 0 0 0.0189125 0 0 
164 1 164 0.259946 0.539929 0 0 -0.0762352 -0.000541347 -0.0246 0.0203958 0 0 -0.611169 0 0 
165 1 165 0.259957 0.579936 0 0 -0.0593874 0.0207774 -0.012368 0.00453876 0 0 -0.710596 0 0 
166 1 166 0.259965 0.619942 0 0 -0.036856 0.013442 -0.0074994 0.0106107 0 0 -1.68187 0 0 
167 1 167 0.259974 0.659946 0 0 -0.0191817 -0.000353066 -0.00625384 -0.000616696 0 0 -1.5054 0 0 
168 1 168 0.259978 0.699947 0 0 -0.00494275 0.0100232 0.00163614 -0.0105919 0 0 -0.446367 0 0 
169 1 169 0.259982 0.739947 0 0 -0.0146408 -0.0162353 -0.00988404 -0.0062726 0 0 0.0113259 0 0 
170 1 170 0.25998 0.779946 0 0 0.00370929 -0.00682644 -0.000988273 -0.0383226 0 0 2.29367 0 0 
171 1 171 0.259975 0.81994 0 0 -0.00359418 -0.0626551 -0.0212186 -0.0132421 0 0 1.63115 0 0 
172 1 172 0.259968 0.859933 0 0 -0.00835864 -0.0303239 -0.0123875 -0.048886 0 0 2.54628 0 0 
173 1 173 0.259955 0.89993 0 0 -0.062533 -0.0503336 -0.0361652 -0.0356492 0 0 1.41924 0 0 
174 1 174 0.259951 0.93993 0 0 -0.108215 -0.0194859 -0.0409288 -0.0108696 0 0 0.687185 0 0 
175 1 175 0.25995 0.979939 0 0 -0.185732 -0.00392381 -0.0607898 -0.0324062 0 0 3.28577 0 0 
176 1 176 0.300009 0.0199949 0 0 -0.0378233 -0.0815361 -0.0382518 0.0389791 0 0 0.227682 0 0 
177 1 177 0.300019 0.0599847 0 0 -0.0330354 -0.0787354 -0.035815 0.0135143 0 0 -0.449605 0 0 
178 1 178 0.300019 0.0999754 0 0 -0.0234318 -0.0655097 -0.0284958 0.0142361 0 0 -1.82423 0 0 
179 1 179 0.300022 0.139968 0 0 -0.0105672 -0.0390646 -0.0158954 0.0348595 0 0 -3.22747 0 0 
180 1 180 0.300029 0.179962 0 0 -0.0152231 -0.0503967 -0.02102 0.0434486 0 0 -4.74489 0 0 
181 1 181 0.300035 0.219957 0 0 0.00998479 -0.00314679 0.002201 0.0327197 0 0 -5.38905 0 0 
182 1 182 0.300032 0.259954 0 0 -0.00695656 -0.0447769 -0.0165663 0.0113208 0 0 -5.20815 0 0 
183 1 183 0.300019 0.299949 0 0 0.0126258 -0.0069254 0.00183744 -0.00765021 0 0 -4.91453 0 0 
184 1 184 0.299998 0.339945 0 0 0.00955008 -0.0328074 -0.00744077 -0.0305974 0 0 -4.08771 0 0 
185 1 185 0.299975 0.379938 0 0 0.00926228 -0.0565588 -0.015145 -0.0297463 0 0 -3.08468 0 0 
186 1 186 0.299954 0.419929 0 0 0.0144703 -0.0306877 -0.00518858 -0.042064 0 0 -1.55902 0 0 
187 1 187 0.299938 0.459922 0 0 -0.030765 -0.0702739 -0.0323791 -0.0230605 0 0 -0.730882 0 0 
188 1 188 0.299933 0.499918 0 0 -0.0373226 -0.000955839 -0.0122652 -0.0213926 0 0 0.0452147 0 0 
189 1 189 0.299936 0.539922 0 0 -0.100667 -0.0282654 -0.041321 0.00120891 0 0 -0.262594 0 0 
190 1 190 0.299949 0.579927 0 0 -0.123196 -0.0110971 -0.0430376 0.00192774 0 0 0.449419 0 0 
191 1 191 0.299962 0.619934 0 0 -0.130589 -0.019783 -0.0481924 0.0113982 0 0 0.942936 0 0 
192 1 192 0.299974 0.659939 0 0 -0.141868 -0.0452523 -0.0599743 0.00409629 0 0 1.72037 0 0 
193 1 193 0.299979 0.699943 0 0 -0.115945 -0.0255391 -0.0453386 0.00569786 0 0 2.33326 0 0 
194 1 194 0.299983 0.739945 0 0 -0.103264 -0.0556779 -0.0509363 0.0188102 0 0 2.23125 0 0 
195 1 195 0.299982 0.779945 0 0 -0.0566729 -0.0240197 -0.0258502 -0.00286465 0 0 3.33969 0 0 
196 1 196 0.299979 0.819941 0 0 -0.0488726 -0.0714833 -0.0385637 0.0241617 0 0 1.82391 0 0 
197 1 197 0.29997 0.859935 0 0 -0.0345467 -0.0364874 -0.0227554 -0.0226467 0 0 2.71019 0 0 
198 1 198 0.299949 0.899933 0 0 -0.0723797 -0.053495 -0.0403343 -0.00372661 0 0 1.35926 0 0 
199 1 199 0.299935 0.939934 0 0 -0.118937 -0.0129555 -0.0422706 0.0074796 0 0 1.16444 0 0 
200 1 200 0.299918 0.979945 0 0 -0.20889 -0.0168031 -0.0723466 -0.0124075 0 0 3.02974 0 0 
201 1 201 0.340009 0.0199962 0 0 -0.0274209 -0.0599614 -0.0280008 0.039786 0 0 -0.0142792 0 0 
202 1 202 0.340019 0.0599893 0 0 -0.015736 -0.0464854 -0.0199338 0.0167486 0 0 -0.654483 0 0 
203 1 203 0.340019 0.0999833 0 0 -0.00954294 -0.0434323 -0.0169698 0.0136263 0 0 -1.47859 0 0 
204 1 204 0.340022 0.139977 0 0 -0.00852611 -0.0349686 -0.01393 0.0303421 0 0 -2.63346 0 0 
205 1 205 0.340029 0.179972 0 0 -0.018135 -0.0443307 -0.0200102 0.0369647 0 0 -4.37198 0 0 
206 1 206 0.340035 0.219968 0 0 -0.0026688 -0.0132476 -0.00508963 0.0242358 0 0 -5.61124 0 0 
207 1 207 0.340033 0.259964 0 0 -0.0103621 -0.0435055 -0.0172501 -0.00256348 0 0 -5.98819 0 0 
208 1 208 0.340021 0.299958 0 0 0.00381978 -0.0329668 -0.00932679 -0.0229894 0 0 -5.81024 0 0 
209 1 209 0.340003 0.339951 0 0 0.0130842 -0.0480561 -0.0111929 -0.0452839 0 0 -4.95001 0 0 
210 1 210 0.339981 0.37994 0 0 0.00984173 -0.07878 -0.0220788 -0.0492532 0 0 -3.77291 0 0 
211 1 211 0.339959 0.419927 0 0 0.0134301 -0.0633211 -0.0159762 -0.0631971 0 0 -2.05895 0 0 
212 1 212 0.339939 0.459917 0 0 -0.0197786 -0.0755613 -0.0305487 -0.0509962 0 0 -1.2598 0 0 
213 1 213 0.339925 0.49991 0 0 -0.0462586 -0.0356296 -0.0262395 -0.0446436 0 0 -1.2333 0 0 
214 1 214 0.33992 0.53991 0 0 -0.0777091 -0.0225654 -0.0321318 -0.0228327 0 0 -1.75928 0 0 
215 1 215 0.339925 0.579916 0 0 -0.0820914 0.0175568 -0.0206749 -0.00697089 0 0 -1.9043 0 0 
216 1 216 0.339935 0.619925 0 0 -0.0757065 0.0207263 -0.0176129 0.0145463 0 0 -2.33254 0 0 
217 1 217 0.339947 0.659934 0 0 -0.0605245 0.0279644 -0.0104253 0.00600293 0 0 -1.09635 0 0 
218 1 218 0.339955 0.699944 0 0 -0.0577949 0.0357271 -0.0070621 0.0166239 0 0 -0.209621 0 0 
219 1 219 0.339963 0.739951 0 0 -0.0675461 -0.0008463 -0.021908 0.0390234 0 0 0.456299 0 0 
220 1 220 0.33997 0.779955 0 0 -0.0484555 -0.00152137 -0.0160067 0.0324479 0 0 1.84211 0 0 
221 1 221 0.339971 0.819956 0 0 -0.0549617 -0.0376017 -0.0296543 0.0551017 0 0 0.502488 0 0 
222 1 222 0.339962 0.859955 0 0 -0.0576424 -0.0276332 -0.0273213 0.00401782 0 0 1.59413 0 0 
223 1 223 0.339939 0.899955 0 0 -0.0899364 -0.0516856 -0.045384 0.0213149 0 0 0.537004 0 0 
224 1 224 0.339916 0.939958 0 0 -0.122823 -0.000825794 -0.0396246 0.0113627 0 0 1.35201 0 0 
225 1 225 0.339887 0.979969 0 0 -0.200519 -0.0218629 -0.0712829 -0.00070507 0 0 2.30265 0 0 
226 1 226 0.380008 0.0199974 0 0 -0.0319983 -0.0451225 -0.0247097 0.036303 0 0 -0.0492849 0 0 
227 1 227 0.380019 0.0599938 0 0 -0.0341808 -0.0329602 -0.0215091 0.0179951 0 0 -0.415512 0 0 
228 1 228 0.380021 0.0999894 0 0 -0.0328495 -0.0555918 -0.0283373 0.0111171 0 0 -0.749778 0 0 
229 1 229 0.380025 0.139983 0 0 -0.00987834 -0.0346417 -0.0142595 0.0207089 0 0 -1.78049 0 0 
230 1 230 0.380031 0.179978 0 0 -0.021572 -0.0548141 -0.0244738 0.0210607 0 0 -3.85712 0 0 
231 1 231 0.380036 0.219972 0 0 -0.0145643 -0.0271913 -0.0133734 0.00885492 0 0 -5.63975 0 0 
232 1 232 0.380035 0.259967 0 0 -0.021289 -0.0590481 -0.0257374 -0.0152706 0 0 -6.37019 0 0 
233 1 233 0.380025 0.299959 0 0 -0.00534913 -0.0531672 -0.0187416 -0.0368078 0 0 -6.12556 0 0 
234 1 234 0.380009 0.339948 0 0 -0.00109787 -0.0810723 -0.0263221 -0.0519749 0 0 -5.38271 0 0 
235 1 235 0.37999 0.379935 0 0 0.0134938 -0.0835203 -0.0224281 -0.0612451 0 0 -3.96251 0 0 
236 1 236 0.379967 0.41992 0 0 0.00919778 -0.085257 -0.0243627 -0.0743932 0 0 -2.2414 0 0 
237 1 237 0.379943 0.459907 0 0 -0.0109157 -0.0799649 -0.029117 -0.0694389 0 0 -1.47155 0 0 
238 1 238 0.379923 0.499899 0 0 -0.0366372 -0.0338954 -0.0225964 -0.0638069 0 0 -1.31762 0 0 
239 1 239 0.379912 0.539899 0 0 -0.0979884 -0.0414067 -0.044671 -0.029233 0 0 -1.54023 0 0 
240 1 240 0.379914 0.579905 0 0 -0.119548 0.0218629 -0.0312992 -0.0109462 0 0 -0.360441 0 0 
241 1 241 0.379924 0.619918 0 0 -0.185793 -0.00689589 -0.0617638 0.0195325 0 0 0.225063 0 0 
242 1 242 0.379937 0.659932 0 0 -0.201689 0.00358934 -0.0634964 0.0215571 0 0 1.85836 0 0 
243 1 243 0.379944 0.699948 0 0 -0.179844 0.0153321 -0.0527243 0.0326692 0 0 2.87511 0 0 
244 1 244 0.379953 0.739962 0 0 -0.171505 -0.00346013 -0.0560762 0.0534753 0 0 2.70821 0 0 
245 1 245 0.37996 0.779974 0 0 -0.138216 -0.00219734 -0.0449971 0.053793 0 0 2.72221 0 0 
246 1 246 0.379963 0.819981 0 0 -0.119297 -0.0243959 -0.046047 0.0720381 0 0 0.967052 0 0 
247 1 247 0.379953 0.859986 0 0 -0.103699 -0.0162538 -0.0384389 0.0217409 0 0 1.43181 0 0 
248 1 248 0.379927 0.89999 0 0 -0.117838 -0.0464974 -0.0526687 0.0359253 0 0 0.227535 0 0 
249 1 249 0.379897 0.939995 0 0 -0.129947 0.00214663 -0.0409543 0.0108239 0 0 1.30676 0 0 
250 1 250 0.379857 0.980006 0 0 -0.178751 -0.0230592 -0.064684 0.00842122 0 0 1.04797 0 0 
251 1 251 0.420006 0.0199988 0 0 -0.0149704 -0.0221465 -0.0118881 0.0306083 0 0 -0.627367 0 0 
252 1 252 0.420016 0.0599971 0 0 -0.00404073 -0.00619943 -0.00327256 0.0181197 0 0 -1.26552 0 0 
253 1 253 0.42002 0.099993 0 0 -0.0118189 -0.0575383 -0.0222187 0.0113472 0 0 -0.981542 0 0 
254 1 254 0.420026 0.139985 0 0 0.00232112 -0.0385199 -0.0115928 0.011808 0 0 -1.64382 0 0 
255 1 255 0.42003 0.179977 0 0 -0.0333431 -0.0777503 -0.0355998 0.00226021 0 0 -3.789 0 0 
256 1 256 0.420035 0.219969 0 0 -0.0335572 -0.052456 -0.0275594 -0.00527148 0 0 -5.7276 0 0 
257 1 257 0.420035 0.259962 0 0 -0.0342982 -0.0722914 -0.0341542 -0.0257256 0 0 -6.84869 0 0 
258 1 258 0.420027 0.299952 0 0 -0.0238899 -0.0801074 -0.033322 -0.0477229 0 0 -6.76547 0 0 
259 1 259 0.420014 0.339939 0 0 -0.0130032 -0.0935787 -0.0341491 -0.0559063 0 0 -5.91991 0 0 
260 1 260 0.419997 0.379925 0 0 -0.00011813 -0.093926 -0.0301285 -0.0650346 0 0 -4.47738 0 0 
261 1 261 0.419974 0.41991 0 0 0.00372398 -0.0857612 -0.0262809 -0.0806482 0 0 -2.82733 0 0 
262 1 262 0.419946 0.459897 0 0 -0.0140455 -0.0821147 -0.0308105 -0.0759466 0 0 -2.32665 0 0 
263 1 263 0.419919 0.49989 0 0 -0.0176429 -0.0196357 -0.0119392 -0.0740523 0 0 -2.31622 0 0 
264 1 264 0.419897 0.539891 0 0 -0.0616565 -0.0122471 -0.0236754 -0.041673 0 0 -3.04651 0 0 
265 1 265 0.419889 0.579898 0 0 -0.0697041 0.0527273 -0.00543058 -0.0119433 0 0 -3.02731 0 0 
266 1 266 0.41989 0.619915 0 0 -0.0699252 0.0848941 0.0048015 0.0140006 0 0 -2.52613 0 0 
267 1 267 0.419898 0.659935 0 0 -0.0870395 0.0961061 0.00291188 0.0250497 0 0 -1.25598 0 0 
268 1 268 0.419907 0.699957 0 0 -0.0973642 0.0902845 -0.00226054 0.0433911 0 0 -0.309943 0 0 
269 1 269 0.41992 0.739978 0 0 -0.108071 0.065104 -0.0137604 0.0598063 0 0 0.572466 0 0 
270 1 270 0.419932 0.779995 0 0 -0.11944 0.0469959 -0.0232084 0.0662732 0 0 0.594912 0 0 
271 1 271 0.41994 0.82001 0 0 -0.126536 0.0254473 -0.0323891 0.0723666 0 0 -0.687516 0 0 
272 1 272 0.419932 0.860023 0 0 -0.126126 0.0105583 -0.0370343 0.0287308 0 0 0.00128995 0 0 
273 1 273 0.419908 0.900032 0 0 -0.132266 -0.0196077 -0.0486745 0.0378806 0 0 -0.539449 0 0 
274 1 274 0.419875 0.940041 0 0 -0.131063 0.00687363 -0.0397988 0.00486155 0 0 1.04943 0 0 
275 1 275 0.419832 0.980051 0 0 -0.157319 -0.0260945 -0.0587853 0.0152199 0 0 -0.144671 0 0 
276 1 276 0.460006 0.0199999 0 0 -0.0126921 -0.0103423 -0.00737715 0.0255374 0 0 -0.794281 0 0 
277 1 277 0.460016 0.0599986 0 0 -0.0125027 -0.0109652 -0.00751088 0.0197118 0 0 -1.36746 0 0 
278 1 278 0.460025 0.0999937 0 0 -0.019721 -0.0715497 -0.0292424 0.0131412 0 0 -0.769114 0 0 
279 1 279 0.46003 0.139984 0 0 -0.00479361 -0.0613011 -0.0211734 0.00451161 0 0 -1.47233 0 0 
280 1 280 0.460032 0.179973 0 0 -0.0344259 -0.0899452 -0.0398544 -0.0103277 0 0 -3.56835 0 0 
281 1 281 0.460034 0.219963 0 0 -0.0453672 -0.0776943 -0.0394333 -0.00604653 0 0 -5.49657 0 0 
282 1 282 0.460035 0.259953 0 0 -0.0486921 -0.0827815 -0.0421298 -0.0214991 0 0 -6.92302 0 0 
283 1 283 0.460029 0.299942 0 0 -0.0447984 -0.0992349 -0.0461567 -0.0378625 0 0 -6.86991 0 0 
284 1 284 0.460019 0.339929 0 0 -0.0222479 -0.0946808 -0.0374668 -0.0409743 0 0 -5.95094 0 0 
285 1 285 0.460004 0.379915 0 0 -0.0120417 -0.0904615 -0.0328416 -0.055504 0 0 -4.62555 0 0 
286 1 286 0.459981 0.419902 0 0 -0.00800441 -0.0829018 -0.0291246 -0.0669784 0 0 -3.22399 0 0 
287 1 287 0.459951 0.459892 0 0 -0.00682316 -0.0571301 -0.0204896 -0.0710284 0 0 -2.58085 0 0 
288 1 288 0.459919 0.499886 0 0 -0.0283767 -0.0291281 -0.0184241 -0.068198 0 0 -2.70852 0 0 
289 1 289 0.459892 0.539887 0 0 -0.0607183 0.00545639 -0.0177014 -0.0461459 0 0 -2.65909 0 0 
290 1 290 0.459877 0.579897 0 0 -0.119978 0.0376349 -0.0263786 -0.0152726 0 0 -1.68234 0 0 
291 1 291 0.459875 0.619916 0 0 -0.18407 0.0511721 -0.0425873 0.0162322 0 0 -0.616732 0 0 
292 1 292 0.45988 0.659941 0 0 -0.203806 0.0753965 -0.0411477 0.0241045 0 0 1.38064 0 0 
293 1 293 0.459887 0.699968 0 0 -0.218109 0.0553402 -0.0521649 0.047711 0 0 1.89752 0 0 
294 1 294 0.459898 0.739993 0 0 -0.20433 0.0600312 -0.0462425 0.0575343 0 0 2.00043 0 0 
295 1 295 0.459908 0.780017 0 0 -0.198443 0.0426396 -0.0499331 0.066126 0 0 1.18811 0 0 
296 1 296 0.459915 0.820038 0 0 -0.196561 0.0394764 -0.0503423 0.0687712 0 0 -0.510465 0 0 
297 1 297 0.459908 0.860058 0 0 -0.182377 0.0299637 -0.0488472 0.0322985 0 0 -0.393658 0 0 
298 1 298 0.459886 0.900074 0 0 -0.161323 0.00411646 -0.0503849 0.039202 0 0 -0.889184 0 0 
299 1 299 0.459854 0.940087 0 0 -0.129366 0.0183088 -0.0355908 0.000754935 0 0 0.591799 0 0 
300 1 300 0.459811 0.980097 0 0 -0.122872 -0.0193232 -0.0455693 0.0175992 0 0 -1.22535 0 0 
301 1 301 0.500005 0.0200002 0 0 0.00430184 0.000723495 0.00161285 0.0225355 0 0 -1.24367 0 0 
302 1 302 0.500015 0.0599983 0 0 0.0109711 -0.0102412 0.000241672 0.0206076 0 0 -2.28694 0 0 
303 1 303 0.500027 0.0999917 0 0 -0.00120376 -0.0703461 -0.0229219 0.0151862 0 0 -1.62102 0 0 
304 1 304 0.500034 0.13998 0 0 -1.38915e-06 -0.0721752 -0.0231222 -0.00124031 0 0 -2.05447 0 0 
305 1 305 0.500033 0.179968 0 0 -0.0276897 -0.0925121 -0.0385162 -0.0188889 0 0 -3.73284 0 0 
306 1 306 0.500032 0.219957 0 0 -0.0456082 -0.0858062 -0.0421096 -0.00790901 0 0 -5.54278 0 0 
307 1 307 0.500032 0.259946 0 0 -0.0514703 -0.0875183 -0.0445371 -0.0135916 0 0 -7.15123 0 0 
308 1 308 0.500029 0.299936 0 0 -0.0416343 -0.0905926 -0.0423695 -0.0246763 0 0 -7.08354 0 0 
309 1 309 0.500021 0.339923 0 0 -0.0332268 -0.0935512 -0.0406233 -0.0249896 0 0 -6.40975 0 0 
310 1 310 0.500007 0.379911 0 0 -0.0222262 -0.0801509 -0.0327999 -0.0437665 0 0 -5.21052 0 0 
311 1 311 0.499984 0.419901 0 0 -0.0135376 -0.0682755 -0.0262088 -0.0518592 0 0 -4.26788 0 0 
312 1 312 0.499953 0.459893 0 0 -0.0047763 -0.0381131 -0.0137389 -0.0651204 0 0 -3.83572 0 0 
313 1 313 0.499915 0.499889 0 0 -0.0159536 -0.0204866 -0.0116734 -0.0677423 0 0 -3.74164 0 0 
314 1 314 0.49988 0.539892 0 0 -0.0221619 0.0308185 0.00278017 -0.0485999 0 0 -3.9153 0 0 
315 1 315 0.499853 0.579902 0 0 -0.0302034 0.084259 0.017326 -0.0269932 0 0 -3.55454 0 0 
316 1 316 0.499839 0.619922 0 0 -0.0500325 0.121785 0.0229927 0.00554972 0 0 -3.56573 0 0 
317 1 317 0.499838 0.659949 0 0 -0.0587318 0.159438 0.032266 0.0215767 0 0 -2.44192 0 0 
318 1 318 0.499845 0.699978 0 0 -0.0758589 0.136138 0.0193178 0.0448952 0 0 -1.57136 0 0 
319 1 319 0.499859 0.740007 0 0 -0.088832 0.13964 0.0162836 0.0503975 0 0 -0.910825 0 0 
320 1 320 0.499871 0.780035 0 0 -0.122872 0.112542 -0.00330426 0.0531967 0 0 -1.38826 0 0 
321 1 321 0.499878 0.820063 0 0 -0.144127 0.108593 -0.0113786 0.0531274 0 0 -2.11303 0 0 
322 1 322 0.499874 0.86009 0 0 -0.157393 0.0873423 -0.0224428 0.0314285 0 0 -1.64679 0 0 