ITEM: TIMESTEP
0
ITEM: NUMBER OF ATOMS
6875
ITEM: BOX BOUNDS sm sm sm
0 4
0 2
0 0
ITEM: ATOMS id type tag x y z damage s11 s22 s33 s12 s13 s23 vx T ienergy 
1 1 1 0.02 0.02 0 0 -2.37688e-63 6.51228e-64 1.72565e-63 -2.58848e-63 0 0 -4.4192e-62 0 0 
2 1 2 0.02 0.06 0 0 -8.10461e-63 3.62674e-63 4.47787e-63 -3.6887e-63 0 0 -1.34355e-61 0 0 
3 1 3 0.02 0.1 0 0 -1.44215e-62 6.8303e-63 7.59124e-63 -4.83248e-63 0 0 -2.33312e-61 0 0 
4 1 4 0.02 0.14 0 0 -2.18637e-62 1.05154e-62 1.13483e-62 -6.17608e-63 0 0 -3.50162e-61 0 0 
5 1 5 0.02 0.18 0 0 -3.09992e-62 1.50204e-62 1.59788e-62 -7.80848e-63 0 0 -4.92528e-61 0 0 
6 1 6 0.02 0.22 0 0 -4.23307e-62 2.06111e-62 2.17197e-62 -9.75849e-63 0 0 -6.67602e-61 0 0 
7 1 7 0.02 0.26 0 0 -5.63245e-62 2.75352e-62 2.87893e-62 -1.20188e-62 0 0 -8.81853e-61 0 0 
8 1 8 0.02 0.3 0 0 -7.3385e-62 3.60058e-62 3.73791e-62 -1.45469e-62 0 0 -1.14075e-60 0 0 
9 1 9 0.02 0.34 0 0 -9.38254e-62 4.61899e-62 4.76355e-62 -1.72652e-62 0 0 -1.44829e-60 0 0 
10 1 10 0.02 0.38 0 0 -1.17827e-61 5.81882e-62 5.96385e-62 -2.00581e-62 0 0 -1.80641e-60 0 0 
11 1 11 0.02 0.42 0 0 -1.4539e-61 7.20108e-62 7.33791e-62 -2.27722e-62 0 0 -2.21432e-60 0 0 
12 1 12 0.02 0.46 0 0 -1.76287e-61 8.75517e-62 8.87358e-62 -2.52187e-62 0 0 -2.6679e-60 0 0 
13 1 13 0.02 0.5 0 0 -2.10017e-61 1.04564e-61 1.05453e-61 -2.71812e-62 0 0 -3.15905e-60 0 0 
14 1 14 0.02 0.54 0 0 -2.45767e-61 1.22641e-61 1.23126e-61 -2.84302e-62 0 0 -3.67533e-60 0 0 
15 1 15 0.02 0.58 0 0 -2.82395e-61 1.41201e-61 1.41195e-61 -2.87453e-62 0 0 -4.19981e-60 0 0 
16 1 16 0.02 0.62 0 0 -3.18439e-61 1.59489e-61 1.5895e-61 -2.79473e-62 0 0 -4.71126e-60 0 0 
17 1 17 0.02 0.66 0 0 -3.5214e-61 1.76587e-61 1.75554e-61 -2.594e-62 0 0 -5.18472e-60 0 0 
18 1 18 0.02 0.7 0 0 -3.81508e-61 1.91425e-61 1.90083e-61 -2.27685e-62 0 0 -5.59255e-60 0 0 
19 1 19 0.02 0.74 0 0 -4.04404e-61 2.02834e-61 2.0157e-61 -1.86937e-62 0 0 -5.90561e-60 0 0 
20 1 20 0.02 0.78 0 0 -4.18571e-61 2.09465e-61 2.09106e-61 -1.43135e-62 0 0 -6.09516e-60 0 0 
21 1 21 0.02 0.82 0 0 -4.21911e-61 2.10106e-61 2.11805e-61 -1.07214e-62 0 0 -6.13186e-60 0 0 
22 1 22 0.02 0.86 0 0 -4.11507e-61 2.02259e-61 2.09249e-61 -9.82827e-63 0 0 -5.99541e-60 0 0 
23 1 23 0.02 0.9 0 0 -3.87157e-61 1.86926e-61 2.00231e-61 -1.50101e-62 0 0 -5.6335e-60 0 0 
24 1 24 0.02 0.94 0 0 -3.35819e-61 1.48329e-61 1.8749e-61 -3.08547e-62 0 0 -5.12431e-60 0 0 
25 1 25 0.02 0.98 0 0 -2.9041e-61 1.29537e-61 1.60874e-61 -7.25184e-62 0 0 -3.96572e-60 0 0 
26 1 26 0.06 0.02 0 0 -4.50029e-62 1.08759e-62 3.4127e-62 -5.42186e-62 0 0 -1.24145e-60 0 0 
27 1 27 0.06 0.06 0 0 -1.55551e-61 6.85528e-62 8.69983e-62 -7.59961e-62 0 0 -3.78503e-60 0 0 
28 1 28 0.06 0.1 0 0 -2.77118e-61 1.30314e-61 1.46804e-61 -9.89244e-62 0 0 -6.60578e-60 0 0 
29 1 29 0.06 0.14 0 0 -4.19884e-61 2.0094e-61 2.18945e-61 -1.26041e-61 0 0 -9.97912e-60 0 0 
30 1 30 0.06 0.18 0 0 -5.94694e-61 2.87018e-61 3.07676e-61 -1.59003e-61 0 0 -1.41428e-59 0 0 
31 1 31 0.06 0.22 0 0 -8.10999e-61 3.93587e-61 4.17412e-61 -1.98312e-61 0 0 -1.93261e-59 0 0 
32 1 32 0.06 0.26 0 0 -1.07747e-60 5.25302e-61 5.5217e-61 -2.43748e-61 0 0 -2.57416e-59 0 0 
33 1 33 0.06 0.3 0 0 -1.40153e-60 6.86099e-61 7.15427e-61 -2.94392e-61 0 0 -3.35763e-59 0 0 
34 1 34 0.06 0.34 0 0 -1.78877e-60 8.79005e-61 9.09762e-61 -3.48621e-61 0 0 -4.29768e-59 0 0 
35 1 35 0.06 0.38 0 0 -2.24223e-60 1.10575e-60 1.13648e-60 -4.04069e-61 0 0 -5.40291e-59 0 0 
36 1 36 0.06 0.42 0 0 -2.76151e-60 1.36634e-60 1.39517e-60 -4.57622e-61 0 0 -6.67371e-59 0 0 
37 1 37 0.06 0.46 0 0 -3.34188e-60 1.65856e-60 1.68332e-60 -5.05485e-61 0 0 -8.09993e-59 0 0 
38 1 38 0.06 0.5 0 0 -3.97344e-60 1.97756e-60 1.99589e-60 -5.43339e-61 0 0 -9.65878e-59 0 0 
39 1 39 0.06 0.54 0 0 -4.64056e-60 2.31547e-60 2.3251e-60 -5.66634e-61 0 0 -1.13131e-58 0 0 
40 1 40 0.06 0.58 0 0 -5.32152e-60 2.6612e-60 2.66031e-60 -5.71033e-61 0 0 -1.30108e-58 0 0 
41 1 41 0.06 0.62 0 0 -5.98863e-60 3.00043e-60 2.9882e-60 -5.53036e-61 0 0 -1.46845e-58 0 0 
42 1 42 0.06 0.66 0 0 -6.60893e-60 3.31578e-60 3.29315e-60 -5.10797e-61 0 0 -1.62538e-58 0 0 
43 1 43 0.06 0.7 0 0 -7.14515e-60 3.5871e-60 3.55804e-60 -4.45239e-61 0 0 -1.76281e-58 0 0 
44 1 44 0.06 0.74 0 0 -7.55752e-60 3.79238e-60 3.76515e-60 -3.61462e-61 0 0 -1.87105e-58 0 0 
45 1 45 0.06 0.78 0 0 -7.80396e-60 3.90597e-60 3.898e-60 -2.70947e-61 0 0 -1.94039e-58 0 0 
46 1 46 0.06 0.82 0 0 -7.84584e-60 3.90531e-60 3.94053e-60 -1.94662e-61 0 0 -1.96092e-58 0 0 
47 1 47 0.06 0.86 0 0 -7.62762e-60 3.74099e-60 3.88663e-60 -1.67704e-61 0 0 -1.92549e-58 0 0 
48 1 48 0.06 0.9 0 0 -7.14914e-60 3.43688e-60 3.71226e-60 -2.55834e-61 0 0 -1.81723e-58 0 0 
49 1 49 0.06 0.94 0 0 -6.15431e-60 2.67417e-60 3.48014e-60 -5.28379e-61 0 0 -1.65966e-58 0 0 
50 1 50 0.06 0.98 0 0 -5.2941e-60 2.3246e-60 2.96949e-60 -1.31907e-60 0 0 -1.29601e-58 0 0 
51 1 51 0.1 0.02 0 0 -1.18226e-60 2.94431e-61 8.87831e-61 -1.3928e-60 0 0 -2.46995e-59 0 0 
52 1 52 0.1 0.06 0 0 -4.08332e-60 1.80343e-60 2.27989e-60 -1.96986e-60 0 0 -7.52411e-59 0 0 
53 1 53 0.1 0.1 0 0 -7.30801e-60 3.43653e-60 3.87148e-60 -2.59082e-60 0 0 -1.31151e-58 0 0 
54 1 54 0.1 0.14 0 0 -1.1148e-59 5.3322e-60 5.81583e-60 -3.33796e-60 0 0 -1.97842e-58 0 0 
55 1 55 0.1 0.18 0 0 -1.59154e-59 7.67614e-60 8.23923e-60 -4.2581e-60 0 0 -2.7993e-58 0 0 
56 1 56 0.1 0.22 0 0 -2.18911e-59 1.06169e-59 1.12741e-59 -5.36789e-60 0 0 -3.81831e-58 0 0 
57 1 57 0.1 0.26 0 0 -2.93406e-59 1.42956e-59 1.5045e-59 -6.66492e-60 0 0 -5.07589e-58 0 0 
58 1 58 0.1 0.3 0 0 -3.85004e-59 1.88365e-59 1.96639e-59 -8.12746e-60 0 0 -6.6071e-58 0 0 
59 1 59 0.1 0.34 0 0 -4.95608e-59 2.43411e-59 2.52197e-59 -9.71363e-60 0 0 -8.43864e-58 0 0 
60 1 60 0.1 0.38 0 0 -6.26427e-59 3.08761e-59 3.17666e-59 -1.13595e-59 0 0 -1.05852e-57 0 0 
61 1 61 0.1 0.42 0 0 -7.777e-59 3.84595e-59 3.93106e-59 -1.2978e-59 0 0 -1.30452e-57 0 0 
62 1 62 0.1 0.46 0 0 -9.48404e-59 4.70451e-59 4.77952e-59 -1.44604e-59 0 0 -1.57968e-57 0 0 
63 1 63 0.1 0.5 0 0 -1.13597e-58 5.6508e-59 5.70892e-59 -1.56799e-59 0 0 -1.87936e-57 0 0 
64 1 64 0.1 0.54 0 0 -1.33607e-58 6.66309e-59 6.69758e-59 -1.64995e-59 0 0 -2.1962e-57 0 0 
65 1 65 0.1 0.58 0 0 -1.54244e-58 7.70962e-59 7.71482e-59 -1.67846e-59 0 0 -2.51997e-57 0 0 
66 1 66 0.1 0.62 0 0 -1.74693e-58 8.74821e-59 8.72113e-59 -1.64217e-59 0 0 -2.83768e-57 0 0 
67 1 67 0.1 0.66 0 0 -1.9396e-58 9.72674e-59 9.66927e-59 -1.53428e-59 0 0 -3.13383e-57 0 0 
68 1 68 0.1 0.7 0 0 -2.10902e-58 1.05838e-58 1.05064e-58 -1.35599e-59 0 0 -3.3911e-57 0 0 
69 1 69 0.1 0.74 0 0 -2.24282e-58 1.12512e-58 1.1177e-58 -1.12089e-59 0 0 -3.59103e-57 0 0 
70 1 70 0.1 0.78 0 0 -2.32779e-58 1.16498e-58 1.16281e-58 -8.6186e-60 0 0 -3.71529e-57 0 0 
71 1 71 0.1 0.82 0 0 -2.3516e-58 1.17079e-58 1.18081e-58 -6.40566e-60 0 0 -3.74511e-57 0 0 
72 1 72 0.1 0.86 0 0 -2.29709e-58 1.12772e-58 1.16937e-58 -5.63359e-60 0 0 -3.66734e-57 0 0 
73 1 73 0.1 0.9 0 0 -2.16304e-58 1.0418e-58 1.12124e-58 -8.25928e-60 0 0 -3.44922e-57 0 0 
74 1 74 0.1 0.94 0 0 -1.87374e-58 8.19724e-59 1.05402e-58 -1.66242e-59 0 0 -3.13888e-57 0 0 
75 1 75 0.1 0.98 0 0 -1.62068e-58 7.16551e-59 9.04125e-59 -4.01564e-59 0 0 -2.42878e-57 0 0 
76 1 76 0.14 0.02 0 0 -2.27077e-59 5.36932e-60 1.73384e-59 -2.75897e-59 0 0 -6.38786e-58 0 0 
77 1 77 0.14 0.06 0 0 -7.87944e-59 3.45833e-59 4.42111e-59 -3.895e-59 0 0 -1.95179e-57 0 0 
78 1 78 0.14 0.1 0 0 -1.4096e-58 6.6083e-59 7.48772e-59 -5.11692e-59 0 0 -3.42059e-57 0 0 
79 1 79 0.14 0.14 0 0 -2.14747e-58 1.02493e-58 1.12253e-58 -6.58429e-59 0 0 -5.19668e-57 0 0 
80 1 80 0.14 0.18 0 0 -3.06067e-58 1.47366e-58 1.58701e-58 -8.38587e-59 0 0 -7.41326e-57 0 0 
81 1 81 0.14 0.22 0 0 -4.20178e-58 2.03492e-58 2.16686e-58 -1.05516e-58 0 0 -1.02007e-56 0 0 
82 1 82 0.14 0.26 0 0 -5.61987e-58 2.73492e-58 2.88496e-58 -1.30736e-58 0 0 -1.3682e-56 0 0 
83 1 83 0.14 0.3 0 0 -7.35792e-58 3.59638e-58 3.76154e-58 -1.59064e-58 0 0 -1.79684e-56 0 0 
84 1 84 0.14 0.34 0 0 -9.4497e-58 4.63746e-58 4.81224e-58 -1.89651e-58 0 0 -2.31499e-56 0 0 
85 1 85 0.14 0.38 0 0 -1.19155e-57 5.86949e-58 6.04597e-58 -2.2123e-58 0 0 -2.92844e-56 0 0 
86 1 86 0.14 0.42 0 0 -1.47569e-57 7.29449e-58 7.46236e-58 -2.52097e-58 0 0 -3.63846e-56 0 0 
87 1 87 0.14 0.46 0 0 -1.79517e-57 8.90237e-58 9.04937e-58 -2.8014e-58 0 0 -4.44043e-56 0 0 
88 1 88 0.14 0.5 0 0 -2.14492e-57 1.06683e-57 1.0781e-57 -3.02918e-58 0 0 -5.32247e-56 0 0 
89 1 89 0.14 0.54 0 0 -2.51656e-57 1.25502e-57 1.26154e-57 -3.17816e-58 0 0 -6.26442e-56 0 0 
90 1 90 0.14 0.58 0 0 -2.89822e-57 1.44878e-57 1.44944e-57 -3.22285e-58 0 0 -7.23718e-56 0 0 
91 1 91 0.14 0.62 0 0 -3.27453e-57 1.64014e-57 1.63439e-57 -3.14202e-58 0 0 -8.20268e-56 0 0 
92 1 92 0.14 0.66 0 0 -3.62693e-57 1.81934e-57 1.80759e-57 -2.92334e-58 0 0 -9.11464e-56 0 0 
93 1 93 0.14 0.7 0 0 -3.93419e-57 1.97491e-57 1.95928e-57 -2.56989e-58 0 0 -9.92031e-56 0 0 
94 1 94 0.14 0.74 0 0 -4.17345e-57 2.0942e-57 2.07926e-57 -2.1084e-58 0 0 -1.05627e-55 0 0 
95 1 95 0.14 0.78 0 0 -4.32033e-57 2.16242e-57 2.15791e-57 -1.60193e-58 0 0 -1.09841e-55 0 0 
96 1 96 0.14 0.82 0 0 -4.35233e-57 2.16649e-57 2.18584e-57 -1.16758e-58 0 0 -1.11255e-55 0 0 
97 1 97 0.14 0.86 0 0 -4.23748e-57 2.07825e-57 2.15923e-57 -1.00186e-58 0 0 -1.09436e-55 0 0 
98 1 98 0.14 0.9 0 0 -3.97517e-57 1.91086e-57 2.0643e-57 -1.47515e-58 0 0 -1.03402e-55 0 0 
99 1 99 0.14 0.94 0 0 -3.42184e-57 1.48585e-57 1.93598e-57 -2.96885e-58 0 0 -9.44925e-56 0 0 
100 1 100 0.14 0.98 0 0 -2.94165e-57 1.29064e-57 1.65101e-57 -7.36849e-58 0 0 -7.37382e-56 0 0 
101 1 101 0.18 0.02 0 0 -5.77287e-58 1.40922e-58 4.36365e-58 -6.85349e-58 0 0 -1.22902e-56 0 0 
102 1 102 0.18 0.06 0 0 -2.00192e-57 8.80567e-58 1.12135e-57 -9.77079e-58 0 0 -3.75175e-56 0 0 
103 1 103 0.18 0.1 0 0 -3.59969e-57 1.68742e-57 1.91227e-57 -1.29812e-57 0 0 -6.56617e-56 0 0 
104 1 104 0.18 0.14 0 0 -5.52499e-57 2.63534e-57 2.88965e-57 -1.69058e-57 0 0 -9.95979e-56 0 0 
105 1 105 0.18 0.18 0 0 -7.94353e-57 3.82183e-57 4.1217e-57 -2.17905e-57 0 0 -1.41823e-55 0 0 
106 1 106 0.18 0.22 0 0 -1.10078e-56 5.32716e-57 5.68061e-57 -2.77337e-57 0 0 -1.94756e-55 0 0 
107 1 107 0.18 0.26 0 0 -1.48645e-56 7.22889e-57 7.63559e-57 -3.47368e-57 0 0 -2.60658e-55 0 0 
108 1 108 0.18 0.3 0 0 -1.96476e-56 9.59724e-57 1.00503e-56 -4.27005e-57 0 0 -3.41532e-55 0 0 
109 1 109 0.18 0.34 0 0 -2.54688e-56 1.24915e-56 1.29773e-56 -5.14165e-57 0 0 -4.38964e-55 0 0 
110 1 110 0.18 0.38 0 0 -3.2405e-56 1.59535e-56 1.64515e-56 -6.05544e-57 0 0 -5.53918e-55 0 0 
111 1 111 0.18 0.42 0 0 -4.04819e-56 1.99997e-56 2.04823e-56 -6.96535e-57 0 0 -6.86496e-55 0 0 
112 1 112 0.18 0.46 0 0 -4.96582e-56 2.46123e-56 2.50459e-56 -7.81259e-57 0 0 -8.35695e-55 0 0 
113 1 113 0.18 0.5 0 0 -5.98085e-56 2.97308e-56 3.00777e-56 -8.5274e-57 0 0 -9.9917e-55 0 0 
114 1 114 0.18 0.54 0 0 -7.07092e-56 3.52436e-56 3.54656e-56 -9.03308e-57 0 0 -1.17305e-54 0 0 
115 1 115 0.18 0.58 0 0 -8.20291e-56 4.09826e-56 4.10465e-56 -9.25265e-57 0 0 -1.35185e-54 0 0 
116 1 116 0.18 0.62 0 0 -9.33264e-56 4.672e-56 4.66064e-56 -9.11886e-57 0 0 -1.52843e-54 0 0 
117 1 117 0.18 0.66 0 0 -1.04055e-55 5.21695e-56 5.18854e-56 -8.58821e-57 0 0 -1.69423e-54 0 0 
118 1 118 0.18 0.7 0 0 -1.13578e-55 5.69894e-56 5.65891e-56 -7.66032e-57 0 0 -1.8395e-54 0 0 
119 1 119 0.18 0.74 0 0 -1.212e-55 6.07965e-56 6.04031e-56 -6.40321e-57 0 0 -1.95379e-54 0 0 
120 1 120 0.18 0.78 0 0 -1.26167e-55 6.31421e-56 6.30252e-56 -4.99235e-57 0 0 -2.0266e-54 0 0 
121 1 121 0.18 0.82 0 0 -1.27775e-55 6.36175e-56 6.41573e-56 -3.76401e-57 0 0 -2.04713e-54 0 0 
122 1 122 0.18 0.86 0 0 -1.25051e-55 6.13939e-56 6.3657e-56 -3.30144e-57 0 0 -2.00775e-54 0 0 
123 1 123 0.18 0.9 0 0 -1.17906e-55 5.67898e-56 6.11163e-56 -4.68377e-57 0 0 -1.89e-54 0 0 
124 1 124 0.18 0.94 0 0 -1.02184e-55 4.46951e-56 5.74885e-56 -9.18545e-57 0 0 -1.72051e-54 0 0 
125 1 125 0.18 0.98 0 0 -8.83639e-56 3.90579e-56 4.9306e-56 -2.20073e-56 0 0 -1.32939e-54 0 0 
126 1 126 0.22 0.02 0 0 -1.07156e-56 2.4728e-57 8.24281e-57 -1.3136e-56 0 0 -3.07365e-55 0 0 
127 1 127 0.22 0.06 0 0 -3.73412e-56 1.63151e-56 2.10261e-56 -1.86922e-56 0 0 -9.41406e-55 0 0 
128 1 128 0.22 0.1 0 0 -6.71091e-56 3.13541e-56 3.5755e-56 -2.48023e-56 0 0 -1.65749e-54 0 0 
129 1 129 0.22 0.14 0 0 -1.02851e-55 4.89417e-56 5.39088e-56 -3.2255e-56 0 0 -2.53385e-54 0 0 
130 1 130 0.22 0.18 0 0 -1.47595e-55 7.0877e-56 7.67182e-56 -4.15002e-56 0 0 -3.64061e-54 0 0 
131 1 131 0.22 0.22 0 0 -2.0409e-55 9.86125e-56 1.05478e-55 -5.27077e-56 0 0 -5.04744e-54 0 0 
132 1 132 0.22 0.26 0 0 -2.74949e-55 1.33536e-55 1.41412e-55 -6.58622e-56 0 0 -6.82152e-54 0 0 
133 1 133 0.22 0.3 0 0 -3.62513e-55 1.76884e-55 1.85629e-55 -8.07571e-56 0 0 -9.02483e-54 0 0 
134 1 134 0.22 0.34 0 0 -4.68694e-55 2.29675e-55 2.39019e-55 -9.69823e-56 0 0 -1.17095e-53 0 0 
135 1 135 0.22 0.38 0 0 -5.94736e-55 2.92598e-55 3.02138e-55 -1.13902e-55 0 0 -1.49118e-53 0 0 
136 1 136 0.22 0.42 0 0 -7.40947e-55 3.65873e-55 3.75074e-55 -1.30645e-55 0 0 -1.86445e-53 0 0 
137 1 137 0.22 0.46 0 0 -9.06407e-55 4.49095e-55 4.57312e-55 -1.4611e-55 0 0 -2.28896e-53 0 0 
138 1 138 0.22 0.5 0 0 -1.08869e-54 5.41089e-55 5.47601e-55 -1.59003e-55 0 0 -2.75902e-53 0 0 
139 1 139 0.22 0.54 0 0 -1.28363e-54 6.39773e-55 6.43854e-55 -1.67911e-55 0 0 -3.26443e-53 0 0 
140 1 140 0.22 0.58 0 0 -1.48514e-54 7.42057e-55 7.43085e-55 -1.71429e-55 0 0 -3.79e-53 0 0 
141 1 141 0.22 0.62 0 0 -1.68522e-54 8.43801e-55 8.41423e-55 -1.68341e-55 0 0 -4.31547e-53 0 0 
142 1 142 0.22 0.66 0 0 -1.87404e-54 9.39837e-55 9.34206e-55 -1.57879e-55 0 0 -4.81581e-53 0 0 
143 1 143 0.22 0.7 0 0 -2.04021e-54 1.02402e-54 1.0162e-54 -1.40077e-55 0 0 -5.26205e-53 0 0 
144 1 144 0.22 0.74 0 0 -2.17132e-54 1.08949e-54 1.08183e-54 -1.16228e-55 0 0 -5.62248e-53 0 0 
145 1 145 0.22 0.78 0 0 -2.25402e-54 1.12819e-54 1.12583e-54 -8.95719e-56 0 0 -5.86476e-53 0 0 
146 1 146 0.22 0.82 0 0 -2.27588e-54 1.13292e-54 1.14296e-54 -6.6267e-56 0 0 -5.95543e-53 0 0 
147 1 147 0.22 0.86 0 0 -2.21948e-54 1.08851e-54 1.13097e-54 -5.66863e-56 0 0 -5.86977e-53 0 0 
148 1 148 0.22 0.9 0 0 -2.08416e-54 1.00178e-54 1.08239e-54 -8.05272e-56 0 0 -5.55333e-53 0 0 
149 1 149 0.22 0.94 0 0 -1.79397e-54 7.78446e-55 1.01552e-54 -1.57561e-55 0 0 -5.07833e-53 0 0 
150 1 150 0.22 0.98 0 0 -1.54108e-54 6.75578e-55 8.65503e-55 -3.88389e-55 0 0 -3.95987e-53 0 0 
151 1 151 0.26 0.02 0 0 -2.63417e-55 6.2867e-56 2.0055e-55 -3.15353e-55 0 0 -5.71666e-54 0 0 
152 1 152 0.26 0.06 0 0 -9.17573e-55 4.01773e-55 5.158e-55 -4.53556e-55 0 0 -1.74914e-53 0 0 
153 1 153 0.26 0.1 0 0 -1.65849e-54 7.74724e-55 8.83765e-55 -6.09227e-55 0 0 -3.07502e-53 0 0 
154 1 154 0.26 0.14 0 0 -2.56282e-54 1.21865e-54 1.34417e-54 -8.02654e-55 0 0 -4.6926e-53 0 0 
155 1 155 0.26 0.18 0 0 -3.71327e-54 1.78165e-54 1.93162e-54 -1.04608e-54 0 0 -6.72859e-53 0 0 
156 1 156 0.26 0.22 0 0 -5.18761e-54 2.50451e-54 2.68311e-54 -1.345e-54 0 0 -9.30768e-53 0 0 
157 1 157 0.26 0.26 0 0 -7.0622e-54 3.42737e-54 3.63484e-54 -1.70032e-54 0 0 -1.25484e-52 0 0 
158 1 158 0.26 0.3 0 0 -9.40841e-54 4.58754e-54 4.82087e-54 -2.10803e-54 0 0 -1.65585e-52 0 0 
159 1 159 0.26 0.34 0 0 -1.22879e-53 6.01759e-54 6.27034e-54 -2.55856e-54 0 0 -2.14263e-52 0 0 
160 1 160 0.26 0.38 0 0 -1.57459e-53 7.74193e-54 8.00399e-54 -3.036e-54 0 0 -2.72101e-52 0 0 
161 1 161 0.26 0.42 0 0 -1.98028e-53 9.77262e-54 1.00302e-53 -3.51756e-54 0 0 -3.39255e-52 0 0 
162 1 162 0.26 0.46 0 0 -2.44454e-53 1.21047e-53 1.23407e-53 -3.97348e-54 0 0 -4.15319e-52 0 0 
163 1 163 0.26 0.5 0 0 -2.96176e-53 1.47114e-53 1.49061e-53 -4.36778e-54 0 0 -4.99198e-52 0 0 
164 1 164 0.26 0.54 0 0 -3.52121e-53 1.75396e-53 1.76726e-53 -4.66013e-54 0 0 -5.88998e-52 0 0 
165 1 165 0.26 0.58 0 0 -4.10649e-53 2.05059e-53 2.0559e-53 -4.80908e-54 0 0 -6.81952e-52 0 0 
166 1 166 0.26 0.62 0 0 -4.69517e-53 2.3495e-53 2.34566e-53 -4.77722e-54 0 0 -7.74412e-52 0 0 
167 1 167 0.26 0.66 0 0 -5.25902e-53 2.63593e-53 2.62309e-53 -4.53848e-54 0 0 -8.61905e-52 0 0 
168 1 168 0.26 0.7 0 0 -5.76465e-53 2.89194e-53 2.87271e-53 -4.08855e-54 0 0 -9.39289e-52 0 0 
169 1 169 0.26 0.74 0 0 -6.17495e-53 3.09719e-53 3.07776e-53 -3.45857e-54 0 0 -1.00096e-51 0 0 
170 1 170 0.26 0.78 0 0 -6.44952e-53 3.22766e-53 3.22186e-53 -2.73611e-54 0 0 -1.04124e-51 0 0 
171 1 171 0.26 0.82 0 0 -6.54997e-53 3.26123e-53 3.28874e-53 -2.09374e-54 0 0 -1.05426e-51 0 0 
172 1 172 0.26 0.86 0 0 -6.42418e-53 3.15406e-53 3.27012e-53 -1.83321e-54 0 0 -1.03579e-51 0 0 
173 1 173 0.26 0.9 0 0 -6.06607e-53 2.92186e-53 3.14421e-53 -2.5168e-54 0 0 -9.7602e-52 0 0 
174 1 174 0.26 0.94 0 0 -5.25998e-53 2.30033e-53 2.95965e-53 -4.79946e-54 0 0 -8.88811e-52 0 0 
175 1 175 0.26 0.98 0 0 -4.54753e-53 2.00953e-53 2.538e-53 -1.13924e-53 0 0 -6.85641e-52 0 0 
176 1 176 0.3 0.02 0 0 -4.72358e-54 1.06041e-54 3.66317e-54 -5.84654e-54 0 0 -1.38151e-52 0 0 
177 1 177 0.3 0.06 0 0 -1.65379e-53 7.18932e-54 9.34863e-54 -8.39203e-54 0 0 -4.24267e-52 0 0 
178 1 178 0.3 0.1 0 0 -2.98729e-53 1.39038e-53 1.59691e-53 -1.12563e-53 0 0 -7.50826e-52 0 0 
179 1 179 0.3 0.14 0 0 -4.60845e-53 2.18564e-53 2.42282e-53 -1.48062e-53 0 0 -1.15572e-51 0 0 
180 1 180 0.3 0.18 0 0 -6.66299e-53 3.19023e-53 3.47276e-53 -1.92572e-53 0 0 -1.67361e-51 0 0 
181 1 181 0.3 0.22 0 0 -9.28579e-53 4.47518e-53 4.81061e-53 -2.47005e-53 0 0 -2.33951e-51 0 0 
182 1 182 0.3 0.26 0 0 -1.26075e-52 6.1096e-53 6.49793e-53 -3.11425e-53 0 0 -3.18785e-51 0 0 
183 1 183 0.3 0.3 0 0 -1.67482e-52 8.15652e-53 8.59168e-53 -3.84988e-53 0 0 -4.25119e-51 0 0 
184 1 184 0.3 0.34 0 0 -2.1809e-52 1.06697e-52 1.11393e-52 -4.65853e-53 0 0 -5.55787e-51 0 0 
185 1 185 0.3 0.38 0 0 -2.78606e-52 1.3688e-52 1.41727e-52 -5.51055e-53 0 0 -7.12882e-51 0 0 
186 1 186 0.3 0.42 0 0 -3.49298e-52 1.72278e-52 1.7702e-52 -6.36424e-53 0 0 -8.97389e-51 0 0 
187 1 187 0.3 0.46 0 0 -4.29841e-52 2.12762e-52 2.17079e-52 -7.16593e-53 0 0 -1.10876e-50 0 0 
188 1 188 0.3 0.5 0 0 -5.19173e-52 2.57821e-52 2.61352e-52 -7.85142e-53 0 0 -1.34452e-50 0 0 
189 1 189 0.3 0.54 0 0 -6.15359e-52 3.06493e-52 3.08866e-52 -8.34932e-53 0 0 -1.59986e-50 0 0 
190 1 190 0.3 0.58 0 0 -7.15499e-52 3.57307e-52 3.58192e-52 -8.5868e-53 0 0 -1.86738e-50 0 0 
191 1 191 0.3 0.62 0 0 -8.15681e-52 4.08245e-52 4.07436e-52 -8.49865e-53 0 0 -2.13697e-50 0 0 
192 1 192 0.3 0.66 0 0 -9.11021e-52 4.56743e-52 4.54279e-52 -8.04021e-53 0 0 -2.39591e-50 0 0 
193 1 193 0.3 0.7 0 0 -9.95774e-52 4.99701e-52 4.96072e-52 -7.20562e-53 0 0 -2.62922e-50 0 0 
194 1 194 0.3 0.74 0 0 -1.06358e-51 5.33617e-52 5.29965e-52 -6.05187e-53 0 0 -2.82028e-50 0 0 
195 1 195 0.3 0.78 0 0 -1.10754e-51 5.54336e-52 5.53203e-52 -4.73448e-53 0 0 -2.95189e-50 0 0 
196 1 196 0.3 0.82 0 0 -1.12115e-51 5.5811e-52 5.63038e-52 -3.55758e-53 0 0 -3.00614e-50 0 0 
197 1 197 0.3 0.86 0 0 -1.09542e-51 5.37214e-52 5.58203e-52 -3.03696e-53 0 0 -2.96957e-50 0 0 
198 1 198 0.3 0.9 0 0 -1.0298e-51 4.9494e-52 5.34856e-52 -4.16138e-53 0 0 -2.81364e-50 0 0 
199 1 199 0.3 0.94 0 0 -8.86361e-52 3.84326e-52 5.02035e-52 -7.89573e-53 0 0 -2.57497e-50 0 0 
200 1 200 0.3 0.98 0 0 -7.60767e-52 3.33201e-52 4.27566e-52 -1.93087e-52 0 0 -2.00612e-50 0 0 
201 1 201 0.34 0.02 0 0 -1.12179e-52 2.60928e-53 8.60859e-53 -1.35529e-52 0 0 -2.48311e-51 0 0 
202 1 202 0.34 0.06 0 0 -3.92706e-52 1.71077e-52 2.21629e-52 -1.96822e-52 0 0 -7.61728e-51 0 0 
203 1 203 0.34 0.1 0 0 -7.13911e-52 3.32174e-52 3.81737e-52 -2.67551e-52 0 0 -1.34579e-50 0 0 
204 1 204 0.34 0.14 0 0 -1.11148e-51 5.26688e-52 5.84788e-52 -3.56922e-52 0 0 -2.06744e-50 0 0 
205 1 205 0.34 0.18 0 0 -1.62415e-51 7.76889e-52 8.47259e-52 -4.707e-52 0 0 -2.98701e-50 0 0 
206 1 206 0.34 0.22 0 0 -2.28921e-51 1.10224e-51 1.18697e-51 -6.11789e-52 0 0 -4.1648e-50 0 0 
207 1 207 0.34 0.26 0 0 -3.14399e-51 1.52229e-51 1.6217e-51 -7.81071e-52 0 0 -5.65924e-50 0 0 
208 1 208 0.34 0.3 0 0 -4.22427e-51 2.05568e-51 2.16859e-51 -9.77157e-52 0 0 -7.52464e-50 0 0 
209 1 209 0.34 0.34 0 0 -5.56196e-51 2.71918e-51 2.84278e-51 -1.19603e-51 0 0 -9.80705e-50 0 0 
210 1 210 0.34 0.38 0 0 -7.1818e-51 3.52606e-51 3.65574e-51 -1.43056e-51 0 0 -1.25391e-49 0 0 
211 1 211 0.34 0.42 0 0 -9.09731e-51 4.48401e-51 4.6133e-51 -1.67021e-51 0 0 -1.57335e-49 0 0 
212 1 212 0.34 0.46 0 0 -1.13062e-50 5.59276e-51 5.71346e-51 -1.90089e-51 0 0 -1.93765e-49 0 0 
213 1 213 0.34 0.5 0 0 -1.37858e-50 6.84165e-51 6.94417e-51 -2.10523e-51 0 0 -2.34213e-49 0 0 
214 1 214 0.34 0.54 0 0 -1.64885e-50 8.20716e-51 8.28135e-51 -2.26336e-51 0 0 -2.77816e-49 0 0 
215 1 215 0.34 0.58 0 0 -1.93383e-50 9.65094e-51 9.68738e-51 -2.35436e-51 0 0 -3.23277e-49 0 0 
216 1 216 0.34 0.62 0 0 -2.22287e-50 1.11182e-50 1.11105e-50 -2.35873e-51 0 0 -3.68844e-49 0 0 
217 1 217 0.34 0.66 0 0 -2.50228e-50 1.25375e-50 1.24853e-50 -2.26189e-51 0 0 -4.12333e-49 0 0 
218 1 218 0.34 0.7 0 0 -2.75557e-50 1.38204e-50 1.37353e-50 -2.05947e-51 0 0 -4.51188e-49 0 0 
219 1 219 0.34 0.74 0 0 -2.96413e-50 1.48651e-50 1.47762e-50 -1.76434e-51 0 0 -4.82586e-49 0 0 
220 1 220 0.34 0.78 0 0 -3.10743e-50 1.55501e-50 1.55242e-50 -1.41721e-51 0 0 -5.03621e-49 0 0 
221 1 221 0.34 0.82 0 0 -3.16572e-50 1.57622e-50 1.5895e-50 -1.10128e-51 0 0 -5.11264e-49 0 0 
222 1 222 0.34 0.86 0 0 -3.11248e-50 1.52816e-50 1.58432e-50 -9.63606e-52 0 0 -5.0331e-49 0 0 
223 1 223 0.34 0.9 0 0 -2.9439e-50 1.41806e-50 1.52584e-50 -1.28084e-51 0 0 -4.74803e-49 0 0 
224 1 224 0.34 0.94 0 0 -2.55427e-50 1.11688e-50 1.43739e-50 -2.37057e-51 0 0 -4.32553e-49 0 0 
225 1 225 0.34 0.98 0 0 -2.20772e-50 9.75323e-51 1.2324e-50 -5.56793e-51 0 0 -3.33054e-49 0 0 
226 1 226 0.38 0.02 0 0 -1.94302e-51 4.22723e-52 1.52029e-51 -2.43005e-51 0 0 -5.79287e-50 0 0 
227 1 227 0.38 0.06 0 0 -6.83819e-51 2.9559e-51 3.88228e-51 -3.52159e-51 0 0 -1.78437e-49 0 0 
228 1 228 0.38 0.1 0 0 -1.24216e-50 5.75672e-51 6.66489e-51 -4.77944e-51 0 0 -3.17589e-49 0 0 
229 1 229 0.38 0.14 0 0 -1.9302e-50 9.12009e-51 1.01819e-50 -6.36402e-51 0 0 -4.92586e-49 0 0 
230 1 230 0.38 0.18 0 0 -2.81365e-50 1.34274e-50 1.47092e-50 -8.37295e-51 0 0 -7.19496e-49 0 0 
231 1 231 0.38 0.22 0 0 -3.95471e-50 1.90046e-50 2.05424e-50 -1.08526e-50 0 0 -1.01484e-48 0 0 
232 1 232 0.38 0.26 0 0 -5.41472e-50 2.6175e-50 2.79723e-50 -1.38127e-50 0 0 -1.39522e-48 0 0 
233 1 233 0.38 0.3 0 0 -7.25135e-50 3.52402e-50 3.72733e-50 -1.72228e-50 0 0 -1.87669e-48 0 0 
234 1 234 0.38 0.34 0 0 -9.51475e-50 4.6466e-50 4.86815e-50 -2.10066e-50 0 0 -2.47367e-48 0 0 
235 1 235 0.38 0.38 0 0 -1.22422e-49 6.00542e-50 6.23675e-50 -2.5035e-50 0 0 -3.19744e-48 0 0 
236 1 236 0.38 0.42 0 0 -1.54515e-49 7.611e-50 7.84046e-50 -2.91221e-50 0 0 -4.05432e-48 0 0 
237 1 237 0.38 0.46 0 0 -1.9134e-49 9.46052e-50 9.67345e-50 -3.30237e-50 0 0 -5.04361e-48 0 0 
238 1 238 0.38 0.5 0 0 -2.32472e-49 1.15339e-49 1.17134e-49 -3.64425e-50 0 0 -6.1555e-48 0 0 
239 1 239 0.38 0.54 0 0 -2.77082e-49 1.379e-49 1.39182e-49 -3.90414e-50 0 0 -7.36908e-48 0 0 
240 1 240 0.38 0.58 0 0 -3.23879e-49 1.61636e-49 1.62242e-49 -4.0468e-50 0 0 -8.65075e-48 0 0 
241 1 241 0.38 0.62 0 0 -3.71079e-49 1.8563e-49 1.85449e-49 -4.03952e-50 0 0 -9.95332e-48 0 0 
242 1 242 0.38 0.66 0 0 -4.16411e-49 2.0869e-49 2.07722e-49 -3.85812e-50 0 0 -1.12161e-47 0 0 
243 1 243 0.38 0.7 0 0 -4.57152e-49 2.29349e-49 2.27802e-49 -3.49577e-50 0 0 -1.23664e-47 0 0 
244 1 244 0.38 0.74 0 0 -4.90237e-49 2.45923e-49 2.44314e-49 -2.97495e-50 0 0 -1.3322e-47 0 0 
245 1 245 0.38 0.78 0 0 -5.12291e-49 2.5639e-49 2.55901e-49 -2.36492e-50 0 0 -1.39967e-47 0 0 
246 1 246 0.38 0.82 0 0 -5.20096e-49 2.58902e-49 2.61194e-49 -1.80653e-50 0 0 -1.42998e-47 0 0 
247 1 247 0.38 0.86 0 0 -5.09252e-49 2.49735e-49 2.59518e-49 -1.54102e-50 0 0 -1.41617e-47 0 0 
248 1 248 0.38 0.9 0 0 -4.79372e-49 2.30373e-49 2.48999e-49 -2.03677e-50 0 0 -1.34405e-47 0 0 
249 1 249 0.38 0.94 0 0 -4.12585e-49 1.78754e-49 2.33831e-49 -3.73691e-50 0 0 -1.23113e-47 0 0 
250 1 250 0.38 0.98 0 0 -3.53776e-49 1.54794e-49 1.98982e-49 -9.053e-50 0 0 -9.58218e-48 0 0 
251 1 251 0.42 0.02 0 0 -4.45231e-50 1.00542e-50 3.4469e-50 -5.43338e-50 0 0 -1.00616e-48 0 0 
252 1 252 0.42 0.06 0 0 -1.56732e-49 6.78853e-50 8.88468e-50 -7.97562e-50 0 0 -3.09549e-48 0 0 
253 1 253 0.42 0.1 0 0 -2.86771e-49 1.32837e-49 1.53934e-49 -1.09841e-49 0 0 -5.49925e-48 0 0 
254 1 254 0.42 0.14 0 0 -4.50196e-49 2.12496e-49 2.377e-49 -1.48519e-49 0 0 -8.51035e-48 0 0 
255 1 255 0.42 0.18 0 0 -6.64039e-49 3.16537e-49 3.47502e-49 -1.98363e-49 0 0 -1.23982e-47 0 0 
256 1 256 0.42 0.22 0 0 -9.45082e-49 4.53685e-49 4.91397e-49 -2.60818e-49 0 0 -1.74363e-47 0 0 
257 1 257 0.42 0.26 0 0 -1.31049e-48 6.32886e-49 6.776e-49 -3.36502e-49 0 0 -2.38949e-47 0 0 
258 1 258 0.42 0.3 0 0 -1.77709e-48 8.62884e-49 9.14204e-49 -4.25052e-49 0 0 -3.20308e-47 0 0 
259 1 259 0.42 0.34 0 0 -2.36037e-48 1.15179e-48 1.20858e-48 -5.24924e-49 0 0 -4.20687e-47 0 0 
260 1 260 0.42 0.38 0 0 -3.07294e-48 1.50633e-48 1.56662e-48 -6.33163e-49 0 0 -5.41767e-47 0 0 
261 1 261 0.42 0.42 0 0 -3.92266e-48 1.93085e-48 1.99181e-48 -7.45214e-49 0 0 -6.84381e-47 0 0 
262 1 262 0.42 0.46 0 0 -4.91048e-48 2.42626e-48 2.48422e-48 -8.54839e-49 0 0 -8.48189e-47 0 0 
263 1 263 0.42 0.5 0 0 -6.02822e-48 2.98881e-48 3.03941e-48 -9.54195e-49 0 0 -1.03136e-46 0 0 
264 1 264 0.42 0.54 0 0 -7.25636e-48 3.60893e-48 3.64743e-48 -1.03412e-48 0 0 -1.23026e-46 0 0 
265 1 265 0.42 0.58 0 0 -8.56215e-48 4.27014e-48 4.29202e-48 -1.08477e-48 0 0 -1.43924e-46 0 0 
266 1 266 0.42 0.62 0 0 -9.89831e-48 4.94817e-48 4.95014e-48 -1.09661e-48 0 0 -1.65045e-46 0 0 
267 1 267 0.42 0.66 0 0 -1.12026e-47 5.61061e-48 5.59203e-48 -1.06209e-48 0 0 -1.85391e-46 0 0 
268 1 268 0.42 0.7 0 0 -1.23987e-47 6.21657e-48 6.18215e-48 -9.78073e-49 0 0 -2.03771e-46 0 0 
269 1 269 0.42 0.74 0 0 -1.33987e-47 6.71806e-48 6.6806e-48 -8.49203e-49 0 0 -2.18845e-46 0 0 
270 1 270 0.42 0.78 0 0 -1.41041e-47 7.05718e-48 7.04697e-48 -6.9306e-49 0 0 -2.29211e-46 0 0 
271 1 271 0.42 0.82 0 0 -1.4419e-47 7.17905e-48 7.23998e-48 -5.47217e-49 0 0 -2.3339e-46 0 0 
272 1 272 0.42 0.86 0 0 -1.42155e-47 6.9795e-48 7.23601e-48 -4.79122e-49 0 0 -2.30286e-46 0 0 
273 1 273 0.42 0.9 0 0 -1.34711e-47 6.48918e-48 6.98192e-48 -6.17199e-49 0 0 -2.17528e-46 0 0 
274 1 274 0.42 0.94 0 0 -1.16965e-47 5.11363e-48 6.58291e-48 -1.10667e-48 0 0 -1.98263e-46 0 0 
275 1 275 0.42 0.98 0 0 -1.01066e-47 4.46369e-48 5.64293e-48 -2.56856e-48 0 0 -1.52329e-46 0 0 
276 1 276 0.46 0.02 0 0 -7.45017e-49 1.56363e-49 5.88654e-49 -9.42269e-49 0 0 -2.26299e-47 0 0 
277 1 277 0.46 0.06 0 0 -2.63715e-48 1.13272e-48 1.50443e-48 -1.38005e-48 0 0 -6.9943e-47 0 0 
278 1 278 0.46 0.1 0 0 -4.82049e-48 2.22326e-48 2.59723e-48 -1.89716e-48 0 0 -1.25287e-46 0 0 
279 1 279 0.46 0.14 0 0 -7.55089e-48 3.55273e-48 3.99816e-48 -2.55965e-48 0 0 -1.95972e-46 0 0 
280 1 280 0.46 0.18 0 0 -1.11064e-47 5.2806e-48 5.82582e-48 -3.40933e-48 0 0 -2.88986e-46 0 0 
281 1 281 0.46 0.22 0 0 -1.57561e-47 7.54738e-48 8.20869e-48 -4.46837e-48 0 0 -4.11647e-46 0 0 
282 1 282 0.46 0.26 0 0 -2.17703e-47 1.04948e-47 1.12754e-47 -5.74424e-48 0 0 -5.71465e-46 0 0 
283 1 283 0.46 0.3 0 0 -2.94088e-47 1.42586e-47 1.51502e-47 -7.22747e-48 0 0 -7.75877e-46 0 0 
284 1 284 0.46 0.34 0 0 -3.89043e-47 1.89615e-47 1.99428e-47 -8.88887e-48 0 0 -1.03176e-45 0 0 
285 1 285 0.46 0.38 0 0 -5.04383e-47 2.47011e-47 2.57372e-47 -1.06763e-47 0 0 -1.34477e-45 0 0 
286 1 286 0.46 0.42 0 0 -6.4113e-47 3.15356e-47 3.25774e-47 -1.25121e-47 0 0 -1.71849e-45 0 0 
287 1 287 0.46 0.46 0 0 -7.99194e-47 3.94674e-47 4.04521e-47 -1.42928e-47 0 0 -2.15349e-45 0 0 
288 1 288 0.46 0.5 0 0 -9.77046e-47 4.84254e-47 4.92792e-47 -1.58902e-47 0 0 -2.64634e-45 0 0 
289 1 289 0.46 0.54 0 0 -1.1714e-46 5.82479e-47 5.88917e-47 -1.71562e-47 0 0 -3.18865e-45 0 0 
290 1 290 0.46 0.58 0 0 -1.37692e-46 6.86665e-47 6.9025e-47 -1.7932e-47 0 0 -3.76621e-45 0 0 
291 1 291 0.46 0.62 0 0 -1.58604e-46 7.92927e-47 7.93113e-47 -1.8065e-47 0 0 -4.35846e-45 0 0 
292 1 292 0.46 0.66 0 0 -1.7889e-46 8.96101e-47 8.92797e-47 -1.74336e-47 0 0 -4.9383e-45 0 0 
293 1 293 0.46 0.7 0 0 -1.9734e-46 9.8969e-47 9.83711e-47 -1.59876e-47 0 0 -5.47262e-45 0 0 
294 1 294 0.46 0.74 0 0 -2.12567e-46 1.06607e-46 1.05959e-46 -1.3803e-47 0 0 -5.92327e-45 0 0 
295 1 295 0.46 0.78 0 0 -2.23013e-46 1.11598e-46 1.11415e-46 -1.11642e-47 0 0 -6.24945e-45 0 0 
296 1 296 0.46 0.82 0 0 -2.27169e-46 1.13077e-46 1.14092e-46 -8.68055e-48 0 0 -6.40769e-45 0 0 
297 1 297 0.46 0.86 0 0 -2.22991e-46 1.09344e-46 1.13646e-46 -7.4123e-48 0 0 -6.36394e-45 0 0 
298 1 298 0.46 0.9 0 0 -2.10232e-46 1.0102e-46 1.09212e-46 -9.45272e-48 0 0 -6.0514e-45 0 0 
299 1 299 0.46 0.94 0 0 -1.80941e-46 7.83264e-47 1.02614e-46 -1.67168e-47 0 0 -5.54856e-45 0 0 
300 1 300 0.46 0.98 0 0 -1.54974e-46 6.77368e-47 8.72375e-47 -4.0044e-47 0 0 -4.31377e-45 0 0 
301 1 301 0.5 0.02 0 0 -1.64449e-47 3.58782e-48 1.28571e-47 -2.0293e-47 0 0 -3.7994e-46 0 0 
302 1 302 0.5 0.06 0 0 -5.82535e-47 2.5066e-47 3.31875e-47 -3.01449e-47 0 0 -1.1727e-45 0 0 
303 1 303 0.5 0.1 0 0 -1.07361e-46 4.94788e-47 5.78825e-47 -4.21148e-47 0 0 -2.09624e-45 0 0 
304 1 304 0.5 0.14 0 0 -1.70118e-46 7.99388e-47 9.01787e-47 -5.77833e-47 0 0 -3.27057e-45 0 0 
305 1 305 0.5 0.18 0 0 -2.53543e-46 1.20386e-46 1.33157e-46 -7.82375e-47 0 0 -4.80841e-45 0 0 
306 1 306 0.5 0.22 0 0 -3.64733e-46 1.74494e-46 1.90239e-46 -1.04157e-46 0 0 -6.82621e-45 0 0 
307 1 307 0.5 0.26 0 0 -5.11097e-46 2.4611e-46 2.64987e-46 -1.35904e-46 0 0 -9.44124e-45 0 0 
308 1 308 0.5 0.3 0 0 -7.00083e-46 3.3909e-46 3.60993e-46 -1.73445e-46 0 0 -1.27673e-44 0 0 
309 1 309 0.5 0.34 0 0 -9.38736e-46 4.57116e-46 4.8162e-46 -2.16249e-46 0 0 -1.69067e-44 0 0 
310 1 310 0.5 0.38 0 0 -1.23304e-45 6.03359e-46 6.29684e-46 -2.63175e-46 0 0 -2.19402e-44 0 0 
311 1 311 0.5 0.42 0 0 -1.58712e-45 7.80065e-46 8.07052e-46 -3.12386e-46 0 0 -2.79138e-44 0 0 
312 1 312 0.5 0.46 0 0 -2.00225e-45 9.88071e-46 1.01418e-45 -3.61297e-46 0 0 -3.48259e-44 0 0 
313 1 313 0.5 0.5 0 0 -2.47591e-45 1.22627e-45 1.24964e-45 -4.06592e-46 0 0 -4.26122e-44 0 0 
314 1 314 0.5 0.54 0 0 -3.00074e-45 1.49108e-45 1.50966e-45 -4.44332e-46 0 0 -5.11319e-44 0 0 
315 1 315 0.5 0.58 0 0 -3.5636e-45 1.77591e-45 1.78769e-45 -4.70177e-46 0 0 -6.01561e-44 0 0 
316 1 316 0.5 0.62 0 0 -4.14492e-45 2.07075e-45 2.07416e-45 -4.7981e-46 0 0 -6.93587e-44 0 0 