ITEM: TIMESTEP
0
ITEM: NUMBER OF ATOMS
7127
ITEM: BOX BOUNDS sm sm sm
0 4
0 2
0 0
ITEM: ATOMS id type tag x y z vx 
0 1 0 0 0 0 0 
1 1 1 0 0.04 0 0 
2 1 2 0 0.08 0 0 
3 1 3 0 0.12 0 0 
4 1 4 0 0.16 0 0 
5 1 5 0 0.2 0 0 
6 1 6 0 0.24 0 0 
7 1 7 0 0.28 0 0 
8 1 8 0 0.32 0 0 
9 1 9 0 0.36 0 0 
10 1 10 0 0.4 0 0 
11 1 11 0 0.44 0 0 
12 1 12 0 0.48 0 0 
13 1 13 0 0.52 0 0 
14 1 14 0 0.56 0 0 
15 1 15 0 0.6 0 0 
16 1 16 0 0.64 0 0 
17 1 17 0 0.68 0 0 
18 1 18 0 0.72 0 0 
19 1 19 0 0.76 0 0 
20 1 20 0 0.8 0 0 
21 1 21 0 0.84 0 0 
22 1 22 0 0.88 0 0 
23 1 23 0 0.92 0 0 
24 1 24 0 0.96 0 0 
25 1 25 0 1 0 0 
26 1 26 0.04 0 0 0 
27 1 27 0.0399934 0.0399923 0 -0.0898078 
28 1 28 0.0399903 0.079988 0 -0.0819551 
29 1 29 0.0399892 0.119984 0 0.0753429 
30 1 30 0.0399877 0.159982 0 0.121537 
31 1 31 0.0399855 0.199984 0 0.127842 
32 1 32 0.0399821 0.239988 0 0.163071 
33 1 33 0.0399795 0.279992 0 0.200277 
34 1 34 0.0399756 0.319997 0 0.253748 
35 1 35 0.0399731 0.360002 0 0.255356 
36 1 36 0.0399695 0.400004 0 0.25611 
37 1 37 0.0399678 0.440007 0 0.19637 
38 1 38 0.0399655 0.480007 0 0.177649 
39 1 39 0.0399655 0.520008 0 0.171472 
40 1 40 0.0399649 0.560009 0 0.187819 
41 1 41 0.0399669 0.60001 0 0.156538 
42 1 42 0.039968 0.64001 0 0.12635 
43 1 43 0.0399703 0.680011 0 0.0900873 
44 1 44 0.0399711 0.720011 0 0.0846602 
45 1 45 0.0399698 0.760013 0 0.0233832 
46 1 46 0.0399714 0.800016 0 -0.0264453 
47 1 47 0.0399703 0.840021 0 -0.0926489 
48 1 48 0.0399773 0.880025 0 0.00370128 
49 1 49 0.0399713 0.920033 0 0.0112871 
50 1 50 0.0399774 0.960034 0 -0.334077 
51 1 51 0.0399526 1.00006 0 -0.426333 
52 1 52 0.08 0 0 0 
53 1 53 0.079989 0.0399906 0 -0.0485841 
54 1 54 0.079983 0.0799842 0 -0.0077894 
55 1 55 0.0799814 0.119981 0 0.121778 
56 1 56 0.0799757 0.159978 0 0.148593 
57 1 57 0.0799683 0.19998 0 0.235382 
58 1 58 0.0799618 0.239983 0 0.335618 
59 1 59 0.0799546 0.279989 0 0.402321 
60 1 60 0.0799497 0.319994 0 0.488175 
61 1 61 0.0799432 0.360001 0 0.485394 
62 1 62 0.0799396 0.400004 0 0.482442 
63 1 63 0.0799339 0.44001 0 0.417524 
64 1 64 0.0799327 0.480011 0 0.415805 
65 1 65 0.0799284 0.520016 0 0.407489 
66 1 66 0.0799315 0.560018 0 0.41878 
67 1 67 0.0799316 0.600022 0 0.370746 
68 1 68 0.0799381 0.640021 0 0.279033 
69 1 69 0.0799361 0.680024 0 0.173167 
70 1 70 0.0799416 0.720022 0 0.0753783 
71 1 71 0.0799373 0.760026 0 -0.00289369 
72 1 72 0.0799403 0.800027 0 -0.134875 
73 1 73 0.0799394 0.840035 0 -0.216103 
74 1 74 0.0799446 0.880041 0 -0.220221 
75 1 75 0.0799497 0.920046 0 -0.219522 
76 1 76 0.0799396 0.960063 0 -0.504468 
77 1 77 0.0799344 1.00007 0 -0.708452 
78 1 78 0.12 0 0 0 
79 1 79 0.119984 0.0399904 0 0.0260435 
80 1 80 0.119976 0.0799856 0 0.035035 
81 1 81 0.119971 0.119982 0 0.13937 
82 1 82 0.119963 0.159979 0 0.261705 
83 1 83 0.119952 0.19998 0 0.46069 
84 1 84 0.119942 0.239982 0 0.613234 
85 1 85 0.119931 0.279985 0 0.71417 
86 1 86 0.119923 0.319989 0 0.799762 
87 1 87 0.119914 0.359994 0 0.76286 
88 1 88 0.119908 0.4 0 0.691819 
89 1 89 0.119901 0.440006 0 0.602165 
90 1 90 0.119897 0.480012 0 0.592658 
91 1 91 0.119894 0.520017 0 0.591448 
92 1 92 0.119894 0.560023 0 0.595604 
93 1 93 0.119897 0.600026 0 0.552232 
94 1 94 0.119902 0.640031 0 0.438441 
95 1 95 0.119908 0.680031 0 0.299803 
96 1 96 0.11991 0.720034 0 0.101603 
97 1 97 0.119909 0.760034 0 -0.0570526 
98 1 98 0.119908 0.800037 0 -0.193717 
99 1 99 0.11991 0.84004 0 -0.261941 
100 1 100 0.119915 0.880048 0 -0.357918 
101 1 101 0.119919 0.920058 0 -0.429817 
102 1 102 0.119917 0.960062 0 -0.675859 
103 1 103 0.119907 1.00008 0 -0.917667 
104 1 104 0.16 0 0 0 
105 1 105 0.159979 0.0399918 0 0.0156471 
106 1 106 0.159969 0.0799849 0 0.0589021 
107 1 107 0.159961 0.119981 0 0.245131 
108 1 108 0.15995 0.159978 0 0.452631 
109 1 109 0.159936 0.199977 0 0.696079 
110 1 110 0.159922 0.239977 0 0.883006 
111 1 111 0.159908 0.279979 0 1.03685 
112 1 112 0.159897 0.319981 0 1.13526 
113 1 113 0.159885 0.359986 0 1.09108 
114 1 114 0.159876 0.399991 0 0.968773 
115 1 115 0.159867 0.439998 0 0.831939 
116 1 116 0.159862 0.480005 0 0.775603 
117 1 117 0.159857 0.520013 0 0.768776 
118 1 118 0.159858 0.560018 0 0.795493 
119 1 119 0.159862 0.600024 0 0.71932 
120 1 120 0.159869 0.640027 0 0.554745 
121 1 121 0.159871 0.680031 0 0.366778 
122 1 122 0.159875 0.720031 0 0.135824 
123 1 123 0.159874 0.760037 0 -0.100422 
124 1 124 0.159876 0.800039 0 -0.286562 
125 1 125 0.159876 0.840047 0 -0.337749 
126 1 126 0.159883 0.880052 0 -0.443632 
127 1 127 0.159891 0.920061 0 -0.539788 
128 1 128 0.159887 0.960073 0 -0.846898 
129 1 129 0.159878 1.00008 0 -1.14538 
130 1 130 0.2 0 0 0 
131 1 131 0.199975 0.0399909 0 -0.0278601 
132 1 132 0.199961 0.0799828 0 0.100842 
133 1 133 0.199949 0.119978 0 0.339267 
134 1 134 0.199935 0.159974 0 0.601885 
135 1 135 0.199917 0.199971 0 0.93201 
136 1 136 0.199901 0.239969 0 1.18048 
137 1 137 0.199885 0.27997 0 1.39201 
138 1 138 0.199871 0.31997 0 1.51759 
139 1 139 0.199857 0.359974 0 1.47084 
140 1 140 0.199846 0.399978 0 1.3166 
141 1 141 0.199835 0.439984 0 1.12579 
142 1 142 0.199828 0.479991 0 1.0274 
143 1 143 0.199823 0.519998 0 0.977398 
144 1 144 0.199824 0.560004 0 0.97079 
145 1 145 0.199824 0.600011 0 0.85095 
146 1 146 0.199832 0.640016 0 0.622667 
147 1 147 0.199837 0.680022 0 0.36569 
148 1 148 0.199842 0.720028 0 0.0873941 
149 1 149 0.19984 0.760033 0 -0.138562 
150 1 150 0.199842 0.800041 0 -0.32833 
151 1 151 0.199845 0.840047 0 -0.406161 
152 1 152 0.199852 0.880056 0 -0.550608 
153 1 153 0.19986 0.920066 0 -0.637762 
154 1 154 0.199858 0.960076 0 -0.951233 
155 1 155 0.199855 1.00009 0 -1.29667 
156 1 156 0.24 0 0 0 
157 1 157 0.239971 0.0399901 0 -0.0935702 
158 1 158 0.239954 0.0799808 0 0.078564 
159 1 159 0.239936 0.119974 0 0.379596 
160 1 160 0.239918 0.159969 0 0.761108 
161 1 161 0.239898 0.199964 0 1.18884 
162 1 162 0.23988 0.23996 0 1.47876 
163 1 163 0.239862 0.279957 0 1.71555 
164 1 164 0.239846 0.319955 0 1.84253 
165 1 165 0.23983 0.359955 0 1.79299 
166 1 166 0.239816 0.399959 0 1.62927 
167 1 167 0.239804 0.439963 0 1.39942 
168 1 168 0.239796 0.479969 0 1.26545 
169 1 169 0.23979 0.519976 0 1.18307 
170 1 170 0.239789 0.559982 0 1.11185 
171 1 171 0.239791 0.599989 0 0.96189 
172 1 172 0.239796 0.639996 0 0.682964 
173 1 173 0.239796 0.680005 0 0.341605 
174 1 174 0.239798 0.720015 0 -0.036453 
175 1 175 0.2398 0.760025 0 -0.327724 
176 1 176 0.239803 0.800034 0 -0.461213 
177 1 177 0.239806 0.840045 0 -0.507544 
178 1 178 0.239817 0.880053 0 -0.693394 
179 1 179 0.239828 0.920067 0 -0.77682 
180 1 180 0.239828 0.960078 0 -1.00468 
181 1 181 0.239824 1.00009 0 -1.29038 
182 1 182 0.28 0 0 0 
183 1 183 0.279969 0.0399884 0 -0.0100245 
184 1 184 0.279946 0.0799774 0 0.205976 
185 1 185 0.279923 0.119969 0 0.505319 
186 1 186 0.279902 0.159962 0 0.892721 
187 1 187 0.279879 0.199955 0 1.27613 
188 1 188 0.27986 0.239948 0 1.56398 
189 1 189 0.27984 0.279941 0 1.8499 
190 1 190 0.279821 0.319937 0 2.01122 
191 1 191 0.279803 0.359934 0 2.00317 
192 1 192 0.279788 0.399935 0 1.88057 
193 1 193 0.279773 0.439938 0 1.66145 
194 1 194 0.279765 0.479942 0 1.51066 
195 1 195 0.279758 0.519948 0 1.41726 
196 1 196 0.279755 0.559953 0 1.27303 
197 1 197 0.279751 0.599962 0 1.03328 
198 1 198 0.279754 0.639972 0 0.631867 
199 1 199 0.279757 0.679986 0 0.177261 
200 1 200 0.27976 0.72 0 -0.2388 
201 1 201 0.279759 0.760014 0 -0.589982 
202 1 202 0.279765 0.800026 0 -0.737715 
203 1 203 0.279773 0.840038 0 -0.721982 
204 1 204 0.279782 0.880049 0 -0.865033 
205 1 205 0.279792 0.920062 0 -0.917807 
206 1 206 0.279797 0.960076 0 -0.952487 
207 1 207 0.2798 1.00009 0 -1.0711 
208 1 208 0.32 0 0 0 
209 1 209 0.319966 0.0399849 0 0.108198 
210 1 210 0.319938 0.0799715 0 0.363616 
211 1 211 0.31991 0.11996 0 0.638209 
212 1 212 0.319886 0.159951 0 0.99368 
213 1 213 0.319862 0.199942 0 1.31796 
214 1 214 0.319841 0.239932 0 1.61386 
215 1 215 0.319819 0.279923 0 1.88545 
216 1 216 0.319799 0.319917 0 2.01168 
217 1 217 0.319778 0.359913 0 2.02032 
218 1 218 0.319759 0.399911 0 1.91867 
219 1 219 0.319743 0.439912 0 1.7147 
220 1 220 0.319733 0.479914 0 1.55678 
221 1 221 0.319724 0.519919 0 1.47619 
222 1 222 0.319719 0.559924 0 1.29972 
223 1 223 0.319716 0.599932 0 1.03204 
224 1 224 0.319713 0.639943 0 0.570143 
225 1 225 0.319708 0.679958 0 -0.0253352 
226 1 226 0.319709 0.719975 0 -0.516069 
227 1 227 0.319713 0.759993 0 -0.862754 
228 1 228 0.31972 0.80001 0 -1.00362 
229 1 229 0.319729 0.840024 0 -0.962959 
230 1 230 0.319742 0.880038 0 -1.02324 
231 1 231 0.319755 0.920055 0 -1.02331 
232 1 232 0.319763 0.960068 0 -0.817621 
233 1 233 0.319766 1.00009 0 -0.700892 
234 1 234 0.36 0 0 0 
235 1 235 0.359964 0.0399805 0 0.272461 
236 1 236 0.359931 0.0799636 0 0.546214 
237 1 237 0.359898 0.119949 0 0.765399 
238 1 238 0.359873 0.159937 0 1.07709 
239 1 239 0.359846 0.199925 0 1.33937 
240 1 240 0.359824 0.239914 0 1.59338 
241 1 241 0.359799 0.279905 0 1.75742 
242 1 242 0.359776 0.319897 0 1.8083 
243 1 243 0.359752 0.359892 0 1.82376 
244 1 244 0.359731 0.399888 0 1.73374 
245 1 245 0.359712 0.439887 0 1.59973 
246 1 246 0.3597 0.479887 0 1.48928 
247 1 247 0.35969 0.519888 0 1.41326 
248 1 248 0.359683 0.559892 0 1.21301 
249 1 249 0.359672 0.5999 0 0.915561 
250 1 250 0.359666 0.639912 0 0.430381 
251 1 251 0.359665 0.679931 0 -0.228426 
252 1 252 0.359667 0.719949 0 -0.818743 
253 1 253 0.359668 0.75997 0 -1.18747 
254 1 254 0.359677 0.799988 0 -1.26973 
255 1 255 0.35969 0.840006 0 -1.19501 
256 1 256 0.359702 0.880022 0 -1.17635 
257 1 257 0.359713 0.92004 0 -1.10478 
258 1 258 0.359725 0.960057 0 -0.670118 
259 1 259 0.359736 1.00007 0 -0.328239 
260 1 260 0.4 0 0 0 
261 1 261 0.399961 0.0399758 0 0.491892 
262 1 262 0.399924 0.0799547 0 0.772292 
263 1 263 0.399888 0.119937 0 0.903252 
264 1 264 0.399859 0.159921 0 1.13393 
265 1 265 0.399831 0.199908 0 1.3098 
266 1 266 0.399807 0.239896 0 1.50726 
267 1 267 0.399779 0.279886 0 1.58651 
268 1 268 0.399753 0.319878 0 1.56681 
269 1 269 0.399726 0.359872 0 1.54397 
270 1 270 0.399701 0.399867 0 1.44819 
271 1 271 0.39968 0.439864 0 1.35851 
272 1 272 0.399666 0.479861 0 1.2712 
273 1 273 0.399652 0.51986 0 1.19109 
274 1 274 0.399643 0.559862 0 1.01263 
275 1 275 0.399634 0.599868 0 0.748819 
276 1 276 0.399624 0.639879 0 0.240991 
277 1 277 0.399613 0.679896 0 -0.39804 
278 1 278 0.399609 0.719915 0 -0.989906 
279 1 279 0.399616 0.759938 0 -1.40631 
280 1 280 0.399627 0.79996 0 -1.46235 
281 1 281 0.399638 0.83998 0 -1.36466 
282 1 282 0.399653 0.88 0 -1.26579 
283 1 283 0.399668 0.92002 0 -1.11435 
284 1 284 0.399683 0.960039 0 -0.484317 
285 1 285 0.399695 1.00006 0 0.0546062 
286 1 286 0.44 0 0 0 
287 1 287 0.439958 0.0399716 0 0.566993 
288 1 288 0.439917 0.0799472 0 0.834595 
289 1 289 0.439878 0.119926 0 0.971665 
290 1 290 0.439847 0.159907 0 1.22741 
291 1 291 0.439816 0.199891 0 1.38414 
292 1 292 0.439789 0.239878 0 1.52164 
293 1 293 0.439758 0.279868 0 1.4743 
294 1 294 0.43973 0.319859 0 1.35577 
295 1 295 0.439698 0.359852 0 1.26061 
296 1 296 0.439672 0.399845 0 1.13639 
297 1 297 0.439647 0.43984 0 1.05663 
298 1 298 0.43963 0.479834 0 0.968665 
299 1 299 0.439617 0.519831 0 0.928693 
300 1 300 0.439604 0.559831 0 0.791741 
301 1 301 0.439586 0.599837 0 0.566561 
302 1 302 0.439573 0.639848 0 0.0773845 
303 1 303 0.439569 0.679865 0 -0.517827 
304 1 304 0.439566 0.719885 0 -1.0554 
305 1 305 0.439568 0.759908 0 -1.45695 
306 1 306 0.439578 0.79993 0 -1.48343 
307 1 307 0.439592 0.839952 0 -1.38923 
308 1 308 0.439605 0.879974 0 -1.23107 
309 1 309 0.439616 0.919996 0 -1.05237 
310 1 310 0.439637 0.960018 0 -0.393185 
311 1 311 0.439656 1.00004 0 0.227992 
312 1 312 0.48 0 0 0 
313 1 313 0.479953 0.0399685 0 0.58863 
314 1 314 0.47991 0.0799411 0 0.865231 
315 1 315 0.479869 0.119916 0 1.02728 
316 1 316 0.479834 0.159895 0 1.30557 
317 1 317 0.479801 0.199876 0 1.47839 
318 1 318 0.47977 0.239862 0 1.59307 
319 1 319 0.479736 0.27985 0 1.43513 
320 1 320 0.479704 0.31984 0 1.23004 
321 1 321 0.479669 0.359832 0 1.07522 
322 1 322 0.479641 0.399824 0 0.932425 
323 1 323 0.479613 0.439816 0 0.896873 
324 1 324 0.479594 0.479809 0 0.814381 
325 1 325 0.479576 0.519805 0 0.746535 
326 1 326 0.479561 0.559804 0 0.612972 
327 1 327 0.479547 0.599808 0 0.45623 
328 1 328 0.47953 0.639817 0 0.0826803 
329 1 329 0.479513 0.679831 0 -0.42511 
330 1 330 0.479506 0.71985 0 -0.944152 
331 1 331 0.479512 0.759872 0 -1.34261 
332 1 332 0.479521 0.799896 0 -1.37666 
333 1 333 0.479531 0.83992 0 -1.32824 
334 1 334 0.479548 0.879943 0 -1.0917 
335 1 335 0.479562 0.919967 0 -0.848881 
336 1 336 0.479585 0.95999 0 -0.249441 
337 1 337 0.479606 1.00001 0 0.355442 
338 1 338 0.52 0 0 0 
339 1 339 0.519949 0.0399662 0 0.471366 
340 1 340 0.519901 0.0799368 0 0.74914 
341 1 341 0.519858 0.119909 0 1.00395 
342 1 342 0.51982 0.159885 0 1.36857 
343 1 343 0.519784 0.199864 0 1.60203 
344 1 344 0.519749 0.239847 0 1.72115 
345 1 345 0.519712 0.279834 0 1.54124 
346 1 346 0.519678 0.319822 0 1.31681 
347 1 347 0.519641 0.359811 0 1.1028 
348 1 348 0.519611 0.399801 0 0.934375 
349 1 349 0.51958 0.439791 0 0.880356 
350 1 350 0.519558 0.479782 0 0.753165 
351 1 351 0.519539 0.519778 0 0.650603 
352 1 352 0.519519 0.559776 0 0.511624 
353 1 353 0.519496 0.599781 0 0.403856 
354 1 354 0.519478 0.639791 0 0.138297 
355 1 355 0.51947 0.679805 0 -0.232206 
356 1 356 0.519463 0.719822 0 -0.643389 
357 1 357 0.519461 0.759842 0 -0.990204 
358 1 358 0.519468 0.799864 0 -1.01442 
359 1 359 0.519479 0.839887 0 -1.01933 
360 1 360 0.519493 0.87991 0 -0.788571 
361 1 361 0.519502 0.919935 0 -0.55663 
362 1 362 0.519529 0.959961 0 -0.134845 
363 1 363 0.519557 0.999986 0 0.351467 
364 1 364 0.56 0 0 0 
365 1 365 0.559943 0.0399647 0 0.281807 
366 1 366 0.559892 0.079933 0 0.553041 
367 1 367 0.559847 0.119903 0 0.934156 
368 1 368 0.559804 0.159877 0 1.41993 
369 1 369 0.559765 0.199854 0 1.74502 
370 1 370 0.559727 0.239834 0 1.88224 
371 1 371 0.559687 0.279818 0 1.7129 
372 1 372 0.559651 0.319804 0 1.49004 
373 1 373 0.559613 0.359792 0 1.2312 
374 1 374 0.559581 0.39978 0 1.07282 
375 1 375 0.559548 0.439769 0 0.98701 
376 1 376 0.559523 0.479759 0 0.778972 
377 1 377 0.559495 0.519754 0 0.653758 
378 1 378 0.559473 0.559752 0 0.529049 
379 1 379 0.559455 0.599756 0 0.461961 
380 1 380 0.559434 0.639762 0 0.322588 
381 1 381 0.559412 0.679772 0 0.104151 
382 1 382 0.559401 0.719787 0 -0.181958 
383 1 383 0.559402 0.759805 0 -0.489645 
384 1 384 0.559407 0.799827 0 -0.571818 
385 1 385 0.559413 0.839851 0 -0.642836 
386 1 386 0.55943 0.879875 0 -0.435576 
387 1 387 0.559444 0.9199 0 -0.224425 
388 1 388 0.559469 0.959927 0 0.00884232 
389 1 389 0.559495 0.999955 0 0.342095 
390 1 390 0.6 0 0 0 
391 1 391 0.599938 0.0399631 0 0.117001 
392 1 392 0.599883 0.0799296 0 0.39292 
393 1 393 0.599834 0.119898 0 0.859967 
394 1 394 0.59979 0.15987 0 1.39443 
395 1 395 0.599746 0.199844 0 1.78194 
396 1 396 0.599705 0.239823 0 1.96899 
397 1 397 0.599663 0.279804 0 1.84687 
398 1 398 0.599624 0.319788 0 1.63874 
399 1 399 0.599585 0.359773 0 1.37695 
400 1 400 0.599552 0.399758 0 1.23989 
401 1 401 0.599516 0.439746 0 1.12232 
402 1 402 0.599486 0.479735 0 0.859852 
403 1 403 0.599457 0.519729 0 0.677345 
404 1 404 0.59943 0.559727 0 0.531141 
405 1 405 0.599401 0.59973 0 0.499471 
406 1 406 0.59938 0.639737 0 0.503444 
407 1 407 0.599368 0.679746 0 0.436851 
408 1 408 0.599358 0.719759 0 0.264307 
409 1 409 0.599349 0.759774 0 0.013855 
410 1 410 0.599352 0.799793 0 -0.116953 
411 1 411 0.599358 0.839815 0 -0.231447 
412 1 412 0.599369 0.879839 0 -0.0657317 
413 1 413 0.599377 0.919865 0 0.109024 
414 1 414 0.599405 0.959893 0 0.166485 
415 1 415 0.599435 0.999923 0 0.336825 
416 1 416 0.64 0 0 0 
417 1 417 0.639933 0.0399616 0 0.00527765 
418 1 418 0.639875 0.079926 0 0.269431 
419 1 419 0.639823 0.119893 0 0.758294 
420 1 420 0.639774 0.159863 0 1.2969 
421 1 421 0.639728 0.199836 0 1.70875 
422 1 422 0.639683 0.239812 0 1.90839 
423 1 423 0.639638 0.279792 0 1.84065 
424 1 424 0.639598 0.319773 0 1.68291 
425 1 425 0.639558 0.359756 0 1.45178 
426 1 426 0.639521 0.39974 0 1.31651 
427 1 427 0.639484 0.439726 0 1.15465 
428 1 428 0.63945 0.479713 0 0.872774 
429 1 429 0.639412 0.519707 0 0.61438 
430 1 430 0.639382 0.559704 0 0.423705 
431 1 431 0.639358 0.599704 0 0.449421 
432 1 432 0.639335 0.639706 0 0.586993 
433 1 433 0.639309 0.679712 0 0.638264 
434 1 434 0.639293 0.719722 0 0.611914 
435 1 435 0.639287 0.759735 0 0.453703 
436 1 436 0.639286 0.799754 0 0.25406 
437 1 437 0.639286 0.839776 0 0.0747741 
438 1 438 0.639298 0.879801 0 0.114995 
439 1 439 0.639312 0.919829 0 0.245831 
440 1 440 0.639336 0.959858 0 0.295034 
441 1 441 0.639362 0.999891 0 0.403839 
442 1 442 0.68 0 0 0 
443 1 443 0.679931 0.0399601 0 0.0326024 
444 1 444 0.679869 0.0799228 0 0.280794 
445 1 445 0.679813 0.119889 0 0.680035 
446 1 446 0.679761 0.159857 0 1.11956 
447 1 447 0.67971 0.199829 0 1.49719 
448 1 448 0.679662 0.239804 0 1.6778 
449 1 449 0.679614 0.279781 0 1.65383 
450 1 450 0.679571 0.319759 0 1.56139 
451 1 451 0.67953 0.359739 0 1.38512 
452 1 452 0.679492 0.399721 0 1.25896 
453 1 453 0.679451 0.439705 0 1.07878 
454 1 454 0.679411 0.479691 0 0.811005 
455 1 455 0.679373 0.519683 0 0.542134 
456 1 456 0.679338 0.559677 0 0.402347 
457 1 457 0.679302 0.599676 0 0.449181 
458 1 458 0.679278 0.63968 0 0.614313 
459 1 459 0.679263 0.679684 0 0.752629 
460 1 460 0.679248 0.719691 0 0.843846 
461 1 461 0.67923 0.759702 0 0.712067 
462 1 462 0.679226 0.799719 0 0.425337 
463 1 463 0.679226 0.839739 0 0.234183 
464 1 464 0.679231 0.879766 0 0.194318 
465 1 465 0.679238 0.919795 0 0.324384 
466 1 466 0.679261 0.959827 0 0.396482 
467 1 467 0.679289 0.999862 0 0.44049 
468 1 468 0.72 0 0 0 
469 1 469 0.719928 0.0399593 0 0.0955335 
470 1 470 0.719863 0.0799206 0 0.301748 
471 1 471 0.719803 0.119885 0 0.579728 
472 1 472 0.719746 0.159853 0 0.89493 
473 1 473 0.719692 0.199824 0 1.18423 
474 1 474 0.719641 0.239797 0 1.31937 
475 1 475 0.71959 0.279772 0 1.3444 
476 1 476 0.719544 0.319748 0 1.32441 
477 1 477 0.719501 0.359726 0 1.21958 
478 1 478 0.719458 0.399706 0 1.1316 
479 1 479 0.719416 0.439688 0 0.9869 
480 1 480 0.719373 0.479672 0 0.744935 
481 1 481 0.719326 0.519661 0 0.434421 
482 1 482 0.719288 0.559654 0 0.323401 
483 1 483 0.719259 0.59965 0 0.36496 
484 1 484 0.719232 0.639647 0 0.549772 
485 1 485 0.719199 0.679647 0 0.762398 
486 1 486 0.719179 0.719653 0 0.927385 
487 1 487 0.719163 0.759663 0 0.830463 
488 1 488 0.719155 0.79968 0 0.515511 
489 1 489 0.719147 0.839702 0 0.33673 
490 1 490 0.719152 0.87973 0 0.207712 
491 1 491 0.719164 0.919761 0 0.33472 
492 1 492 0.719182 0.959796 0 0.464919 
493 1 493 0.719204 0.999836 0 0.474064 
494 1 494 0.76 0 0 0 
495 1 495 0.759928 0.0399588 0 0.190486 
496 1 496 0.759858 0.0799196 0 0.350917 
497 1 497 0.759792 0.119884 0 0.48433 
498 1 498 0.759732 0.159851 0 0.635341 
499 1 499 0.759673 0.199822 0 0.792224 
500 1 500 0.759618 0.239793 0 0.892442 
501 1 501 0.759565 0.279766 0 1.0019 
502 1 502 0.759516 0.31974 0 1.0678 
503 1 503 0.75947 0.359715 0 1.04508 
504 1 504 0.759426 0.399691 0 1.01107 
505 1 505 0.75938 0.439671 0 0.903168 
506 1 506 0.759331 0.479654 0 0.711268 
507 1 507 0.759286 0.51964 0 0.458585 
508 1 508 0.759245 0.55963 0 0.434326 
509 1 509 0.759202 0.599624 0 0.458273 
510 1 510 0.759175 0.639621 0 0.65083 
511 1 511 0.759154 0.679621 0 0.896538 
512 1 512 0.759134 0.719625 0 1.07613 
513 1 513 0.759105 0.759632 0 1.02096 
514 1 514 0.759091 0.799648 0 0.699417 
515 1 515 0.759082 0.839669 0 0.474188 
516 1 516 0.759077 0.879698 0 0.207004 
517 1 517 0.75908 0.919732 0 0.309683 
518 1 518 0.759097 0.959771 0 0.510777 
519 1 519 0.75912 0.999812 0 0.516952 
520 1 520 0.8 0 0 0 
521 1 521 0.799924 0.039959 0 0.19563 
522 1 522 0.799852 0.0799193 0 0.316406 
523 1 523 0.799782 0.119883 0 0.350059 
524 1 524 0.799716 0.159851 0 0.35558 
525 1 525 0.799654 0.19982 0 0.425476 
526 1 526 0.799595 0.239791 0 0.556044 
527 1 527 0.799538 0.279762 0 0.762063 
528 1 528 0.799486 0.319734 0 0.924463 
529 1 529 0.799438 0.359707 0 0.999023 
530 1 530 0.799388 0.399682 0 0.982291 
531 1 531 0.799342 0.439659 0 0.875379 
532 1 532 0.799292 0.47964 0 0.78341 
533 1 533 0.799239 0.519623 0 0.648642 
534 1 534 0.799196 0.559611 0 0.687328 
535 1 535 0.799162 0.5996 0 0.697119 
536 1 536 0.799132 0.639592 0 0.885407 
537 1 537 0.79909 0.679588 0 1.08954 
538 1 538 0.799062 0.71959 0 1.24896 
539 1 539 0.799036 0.759598 0 1.25282 
540 1 540 0.799017 0.799614 0 0.943923 
541 1 541 0.798997 0.839637 0 0.705871 
542 1 542 0.798992 0.879668 0 0.387835 
543 1 543 0.798997 0.919704 0 0.428421 
544 1 544 0.799005 0.959747 0 0.5712 
545 1 545 0.799021 0.999792 0 0.534266 
546 1 546 0.84 0 0 0 
547 1 547 0.839922 0.039958 0 0.0852177 
548 1 548 0.839844 0.0799186 0 0.167629 
549 1 549 0.839768 0.119883 0 0.183878 
550 1 550 0.839699 0.15985 0 0.144839 
551 1 551 0.839632 0.199819 0 0.180049 
552 1 552 0.83957 0.239789 0 0.335053 
553 1 553 0.839511 0.279759 0 0.624575 
554 1 554 0.839456 0.319729 0 0.875896 
555 1 555 0.839404 0.359699 0 1.0228 
556 1 556 0.839353 0.399671 0 1.03467 
557 1 557 0.839304 0.439647 0 0.948346 
558 1 558 0.83925 0.479626 0 0.915747 
559 1 559 0.839202 0.519607 0 0.854824 
560 1 560 0.839157 0.559592 0 0.946169 
561 1 561 0.839109 0.599579 0 0.978148 
562 1 562 0.839077 0.639572 0 1.17878 
563 1 563 0.839049 0.679568 0 1.38162 
564 1 564 0.83902 0.719568 0 1.5899 
565 1 565 0.838979 0.759574 0 1.66533 
566 1 566 0.838952 0.799589 0 1.34897 
567 1 567 0.83893 0.839611 0 1.0736 
568 1 568 0.838911 0.879644 0 0.716566 
569 1 569 0.838903 0.919682 0 0.640648 
570 1 570 0.838909 0.959727 0 0.633376 
571 1 571 0.838926 0.999774 0 0.533146 
572 1 572 0.88 0 0 0 
573 1 573 0.879915 0.0399572 0 -0.043481 
574 1 574 0.879834 0.0799174 0 0.00771077 
575 1 575 0.879754 0.119881 0 0.0368476 
576 1 576 0.87968 0.159848 0 -0.0108111 
577 1 577 0.87961 0.199816 0 -0.00571323 
578 1 578 0.879545 0.239785 0 0.171885 
579 1 579 0.879484 0.279753 0 0.558719 
580 1 580 0.879426 0.319722 0 0.887129 
581 1 581 0.879372 0.35969 0 1.05035 
582 1 582 0.879317 0.399662 0 1.05816 
583 1 583 0.879266 0.439636 0 0.981301 
584 1 584 0.879213 0.479614 0 1.01053 
585 1 585 0.879159 0.519593 0 1.06644 
586 1 586 0.879112 0.559577 0 1.24227 
587 1 587 0.879075 0.599561 0 1.31931 
588 1 588 0.879037 0.639549 0 1.50795 
589 1 589 0.878986 0.679543 0 1.66042 
590 1 590 0.878947 0.719543 0 1.85878 
591 1 591 0.878909 0.75955 0 1.97869 
592 1 592 0.878874 0.799564 0 1.71654 
593 1 593 0.878839 0.839588 0 1.44162 
594 1 594 0.87882 0.879621 0 1.04796 
595 1 595 0.878811 0.919661 0 0.834795 
596 1 596 0.878808 0.959708 0 0.678733 
597 1 597 0.878816 0.999758 0 0.540261 
598 1 598 0.92 0 0 0 
599 1 599 0.919911 0.0399549 0 -0.200158 
600 1 600 0.919823 0.0799149 0 -0.167533 
601 1 601 0.919739 0.119878 0 -0.0880186 
602 1 602 0.919662 0.159842 0 -0.122842 
603 1 603 0.919589 0.199809 0 -0.111422 
604 1 604 0.919522 0.239776 0 0.101393 
605 1 605 0.91946 0.279743 0 0.512129 
606 1 606 0.919399 0.31971 0 0.863815 
607 1 607 0.919341 0.359678 0 1.03724 
608 1 608 0.919286 0.399648 0 1.02861 
609 1 609 0.919231 0.439621 0 0.936283 
610 1 610 0.919175 0.479599 0 1.01906 
611 1 611 0.919126 0.519578 0 1.20535 
612 1 612 0.919077 0.55956 0 1.44363 
613 1 613 0.919023 0.599545 0 1.52343 
614 1 614 0.918981 0.639537 0 1.66939 
615 1 615 0.918944 0.679532 0 1.80918 
616 1 616 0.918903 0.719532 0 2.03915 
617 1 617 0.918849 0.759538 0 2.22237 
618 1 618 0.918807 0.799551 0 2.06121 
619 1 619 0.918769 0.839573 0 1.81157 
620 1 620 0.918734 0.879606 0 1.4273 
621 1 621 0.91871 0.919646 0 1.12057 
622 1 622 0.918704 0.959694 0 0.811508 
623 1 623 0.918712 0.999744 0 0.62645 
624 1 624 0.96 0 0 0 
625 1 625 0.959902 0.039953 0 -0.264339 
626 1 626 0.959813 0.0799113 0 -0.222099 
627 1 627 0.959726 0.119872 0 -0.122662 
628 1 628 0.959645 0.159835 0 -0.187471 
629 1 629 0.95957 0.199799 0 -0.208804 
630 1 630 0.959501 0.239764 0 -0.0232526 
631 1 631 0.959437 0.279729 0 0.336045 
632 1 632 0.959375 0.319695 0 0.674806 
633 1 633 0.959315 0.359662 0 0.859 
634 1 634 0.959254 0.399633 0 0.874263 
635 1 635 0.959197 0.439606 0 0.835592 
636 1 636 0.959141 0.479584 0 0.998602 
637 1 637 0.959084 0.519563 0 1.24602 
638 1 638 0.959031 0.559546 0 1.46585 
639 1 639 0.958987 0.59953 0 1.57533 
640 1 640 0.958938 0.639519 0 1.7196 
641 1 641 0.958875 0.679513 0 1.838 
642 1 642 0.958823 0.719515 0 2.06086 
643 1 643 0.958774 0.759522 0 2.26471 
644 1 644 0.958723 0.799536 0 2.18625 
645 1 645 0.958672 0.83956 0 2.00097 
646 1 646 0.958636 0.879592 0 1.71635 
647 1 647 0.958611 0.919633 0 1.34755 
648 1 648 0.958595 0.959682 0 0.894257 
649 1 649 0.958593 0.999734 0 0.681907 
650 1 650 1 0 0 0 
651 1 651 0.999898 0.0399514 0 -0.216783 
652 1 652 0.999802 0.0799078 0 -0.206516 
653 1 653 0.999714 0.119866 0 -0.147682 
654 1 654 0.999632 0.159826 0 -0.24596 
655 1 655 0.999555 0.199787 0 -0.312478 
656 1 656 0.999483 0.239749 0 -0.171321 
657 1 657 0.999418 0.279712 0 0.118636 
658 1 658 0.999353 0.319677 0 0.406014 
659 1 659 0.999289 0.359643 0 0.570929 
660 1 660 0.999228 0.399613 0 0.607485 
661 1 661 0.999166 0.439587 0 0.637667 
662 1 662 0.999105 0.479565 0 0.919004 
663 1 663 0.999051 0.519545 0 1.30252 
664 1 664 0.998995 0.559529 0 1.58448 
665 1 665 0.998931 0.599517 0 1.71437 
666 1 666 0.998874 0.639512 0 1.76857 
667 1 667 0.998827 0.679509 0 1.79942 
668 1 668 0.998772 0.719511 0 1.95059 
669 1 669 0.998708 0.759518 0 2.15752 
670 1 670 0.99865 0.799533 0 2.20506 
671 1 671 0.998596 0.839555 0 2.08996 
672 1 672 0.998545 0.879586 0 1.8968 
673 1 673 0.998504 0.919627 0 1.53477 
674 1 674 0.998486 0.959675 0 1.09146 
675 1 675 0.998482 0.999727 0 0.93938 
676 1 676 1.04 0 0 0 
677 1 677 1.03989 0.0399516 0 -0.0397427 
678 1 678 1.0398 0.0799056 0 -0.0911297 
679 1 679 1.03971 0.119861 0 -0.14908 
680 1 680 1.03962 0.159818 0 -0.281273 
681 1 681 1.03954 0.199776 0 -0.377857 
682 1 682 1.03947 0.239735 0 -0.311215 
683 1 683 1.0394 0.279696 0 -0.130644 
684 1 684 1.03933 0.31966 0 0.0927834 
685 1 685 1.03927 0.359626 0 0.264226 
686 1 686 1.0392 0.399598 0 0.386755 
687 1 687 1.03914 0.439572 0 0.574087 
688 1 688 1.03907 0.47955 0 1.00829 
689 1 689 1.03901 0.519531 0 1.48154 
690 1 690 1.03895 0.559517 0 1.77387 
691 1 691 1.03889 0.599503 0 1.88623 
692 1 692 1.03882 0.639495 0 1.8451 
693 1 693 1.03875 0.679492 0 1.81116 
694 1 694 1.03868 0.719498 0 1.87959 
695 1 695 1.03862 0.759508 0 2.03418 
696 1 696 1.03856 0.799524 0 2.13432 
697 1 697 1.03849 0.839549 0 2.09137 
698 1 698 1.03844 0.879583 0 2.04965 
699 1 699 1.0384 0.919623 0 1.72534 
700 1 700 1.03837 0.959671 0 1.32282 
701 1 701 1.03836 0.999725 0 1.25227 
702 1 702 1.08 0 0 0 
703 1 703 1.07989 0.0399517 0 0.17297 
704 1 704 1.07979 0.0799044 0 0.0880837 
705 1 705 1.0797 0.119858 0 -0.0974588 
706 1 706 1.07961 0.159812 0 -0.292007 
707 1 707 1.07953 0.199767 0 -0.405905 
708 1 708 1.07945 0.239723 0 -0.382818 
709 1 709 1.07938 0.279683 0 -0.298248 
710 1 710 1.07931 0.319645 0 -0.139347 
711 1 711 1.07924 0.359611 0 0.0338281 
712 1 712 1.07918 0.399582 0 0.244116 
713 1 713 1.07911 0.439556 0 0.583019 
714 1 714 1.07904 0.479536 0 1.1276 
715 1 715 1.07897 0.519517 0 1.66921 
716 1 716 1.07891 0.559503 0 2.01629 
717 1 717 1.07883 0.599493 0 2.16964 
718 1 718 1.07875 0.639491 0 2.09795 
719 1 719 1.07869 0.679492 0 2.0007 
720 1 720 1.07862 0.719498 0 1.90565 
721 1 721 1.07855 0.759509 0 1.93882 
722 1 722 1.07848 0.799529 0 2.03165 
723 1 723 1.07841 0.839554 0 1.99671 
724 1 724 1.07835 0.879586 0 2.07747 
725 1 725 1.07829 0.919627 0 1.8515 
726 1 726 1.07826 0.959675 0 1.60062 
727 1 727 1.07825 0.999729 0 1.66225 
728 1 728 1.12 0 0 0 
729 1 729 1.11989 0.0399538 0 0.365915 
730 1 730 1.11979 0.0799054 0 0.25757 
731 1 731 1.1197 0.119856 0 -0.00266193 
732 1 732 1.11961 0.159808 0 -0.208152 
733 1 733 1.11952 0.199761 0 -0.309812 
734 1 734 1.11944 0.239716 0 -0.319501 
735 1 735 1.11937 0.279674 0 -0.336417 
736 1 736 1.1193 0.319637 0 -0.261933 
737 1 737 1.11922 0.359603 0 -0.115212 
738 1 738 1.11915 0.399575 0 0.133231 
739 1 739 1.11908 0.439549 0 0.606445 
740 1 740 1.11901 0.479529 0 1.34457 
741 1 741 1.11893 0.51951 0 2.03956 
742 1 742 1.11885 0.559497 0 2.42986 
743 1 743 1.11878 0.599486 0 2.58744 
744 1 744 1.1187 0.63948 0 2.49112 
745 1 745 1.11861 0.679481 0 2.318 
746 1 746 1.11853 0.719491 0 2.04534 
747 1 747 1.11846 0.759506 0 1.91973 
748 1 748 1.11838 0.799528 0 1.91988 
749 1 749 1.11831 0.839558 0 1.85044 
750 1 750 1.11824 0.879594 0 2.03324 
751 1 751 1.11819 0.919635 0 1.8901 
752 1 752 1.11815 0.959683 0 1.77022 
753 1 753 1.11812 0.999738 0 1.9426 
754 1 754 1.16 0 0 0 
755 1 755 1.1599 0.0399547 0 0.582874 
756 1 756 1.15979 0.0799065 0 0.486073 
757 1 757 1.1597 0.119857 0 0.156651 
758 1 758 1.1596 0.159808 0 -0.0540637 
759 1 759 1.15951 0.199759 0 -0.136724 
760 1 760 1.15943 0.239713 0 -0.193038 
761 1 761 1.15935 0.27967 0 -0.312577 
762 1 762 1.15928 0.319631 0 -0.328496 
763 1 763 1.1592 0.359599 0 -0.189678 
764 1 764 1.15912 0.39957 0 0.173429 
765 1 765 1.15904 0.439545 0 0.784125 
766 1 766 1.15896 0.479525 0 1.53638 
767 1 767 1.15889 0.519506 0 2.19664 
768 1 768 1.15881 0.559493 0 2.60809 
769 1 769 1.15872 0.599486 0 2.83083 
770 1 770 1.15863 0.639487 0 2.77441 
771 1 771 1.15855 0.67949 0 2.57852 
772 1 772 1.15847 0.719501 0 2.19022 
773 1 773 1.15838 0.759518 0 1.92592 
774 1 774 1.1583 0.799544 0 1.82541 
775 1 775 1.15822 0.839573 0 1.70017 
776 1 776 1.15814 0.879609 0 1.91713 
777 1 777 1.15807 0.919652 0 1.89548 
778 1 778 1.15803 0.9597 0 1.96956 
779 1 779 1.15801 0.999755 0 2.24447 
780 1 780 1.2 0 0 0 
781 1 781 1.1999 0.0399563 0 0.66981 
782 1 782 1.1998 0.079908 0 0.675049 
783 1 783 1.1997 0.119858 0 0.391506 
784 1 784 1.1996 0.159809 0 0.186287 
785 1 785 1.19951 0.19976 0 0.0835627 