ITEM: TIMESTEP
0
ITEM: NUMBER OF ATOMS
7127
ITEM: BOX BOUNDS sm sm sm
0 4
0 2
0 0
ITEM: ATOMS id type tag x y z vx 
0 1 0 0 0 0 0 
1 1 1 0 0.04 0 0 
2 1 2 0 0.08 0 0 
3 1 3 0 0.12 0 0 
4 1 4 0 0.16 0 0 
5 1 5 0 0.2 0 0 
6 1 6 0 0.24 0 0 
7 1 7 0 0.28 0 0 
8 1 8 0 0.32 0 0 
9 1 9 0 0.36 0 0 
10 1 10 0 0.4 0 0 
11 1 11 0 0.44 0 0 
12 1 12 0 0.48 0 0 
13 1 13 0 0.52 0 0 
14 1 14 0 0.56 0 0 
15 1 15 0 0.6 0 0 
16 1 16 0 0.64 0 0 
17 1 17 0 0.68 0 0 
18 1 18 0 0.72 0 0 
19 1 19 0 0.76 0 0 
20 1 20 0 0.8 0 0 
21 1 21 0 0.84 0 0 
22 1 22 0 0.88 0 0 
23 1 23 0 0.92 0 0 
24 1 24 0 0.96 0 0 
25 1 25 0 1 0 0 
26 1 26 0.04 0 0 0 
27 1 27 0.0400022 0.0400016 0 0.179553 
28 1 28 0.0400029 0.080003 0 0.185644 
29 1 29 0.040004 0.120004 0 0.108801 
30 1 30 0.0400042 0.160007 0 -0.0796691 
31 1 31 0.0400015 0.200009 0 -0.165562 
32 1 32 0.0399997 0.240013 0 -0.158119 
33 1 33 0.0399976 0.280016 0 -0.0994977 
34 1 34 0.0399945 0.32002 0 -0.0853236 
35 1 35 0.0399921 0.360022 0 -0.0417638 
36 1 36 0.0399894 0.400023 0 0.0476628 
37 1 37 0.0399875 0.440021 0 0.0661973 
38 1 38 0.0399849 0.480019 0 0.0873896 
39 1 39 0.0399839 0.520017 0 0.21409 
40 1 40 0.0399797 0.560017 0 0.232048 
41 1 41 0.0399811 0.600018 0 0.256546 
42 1 42 0.0399778 0.640022 0 0.296407 
43 1 43 0.0399799 0.680025 0 0.27858 
44 1 44 0.0399763 0.720029 0 0.302828 
45 1 45 0.0399759 0.760031 0 0.261548 
46 1 46 0.0399711 0.800035 0 0.300252 
47 1 47 0.0399679 0.840036 0 0.258446 
48 1 48 0.0399638 0.880039 0 0.166345 
49 1 49 0.0399578 0.920044 0 0.0734778 
50 1 50 0.0399542 0.960052 0 -0.0771662 
51 1 51 0.0399039 1.0001 0 -0.140708 
52 1 52 0.08 0 0 0 
53 1 53 0.080004 0.0400041 0 0.299953 
54 1 54 0.0800056 0.0800087 0 0.249659 
55 1 55 0.0800059 0.120013 0 0.104158 
56 1 56 0.0800044 0.160018 0 -0.0136881 
57 1 57 0.08 0.200024 0 0.0359223 
58 1 58 0.079997 0.24003 0 0.0290747 
59 1 59 0.0799912 0.280035 0 0.0266971 
60 1 60 0.079987 0.32004 0 -0.0427585 
61 1 61 0.079982 0.360044 0 -0.0775574 
62 1 62 0.0799798 0.400046 0 -0.0531951 
63 1 63 0.0799754 0.440045 0 -0.0133048 
64 1 64 0.0799725 0.480043 0 0.0874956 
65 1 65 0.0799668 0.520042 0 0.343114 
66 1 66 0.0799616 0.560042 0 0.468197 
67 1 67 0.0799585 0.600045 0 0.582439 
68 1 68 0.0799553 0.640048 0 0.624475 
69 1 69 0.0799535 0.680055 0 0.526826 
70 1 70 0.0799519 0.720057 0 0.589217 
71 1 71 0.079945 0.760064 0 0.526545 
72 1 72 0.0799419 0.800066 0 0.51207 
73 1 73 0.0799326 0.840074 0 0.466729 
74 1 74 0.0799253 0.880079 0 0.340354 
75 1 75 0.0799156 0.920091 0 0.235145 
76 1 76 0.0798863 0.960118 0 -0.110701 
77 1 77 0.0798536 1.00013 0 -0.384259 
78 1 78 0.12 0 0 0 
79 1 79 0.120004 0.0400071 0 0.374848 
80 1 80 0.120006 0.0800157 0 0.283284 
81 1 81 0.120004 0.120023 0 0.174648 
82 1 82 0.120003 0.160031 0 0.193289 
83 1 83 0.119997 0.200039 0 0.327368 
84 1 84 0.119992 0.240047 0 0.283776 
85 1 85 0.119984 0.280053 0 0.254425 
86 1 86 0.119977 0.32006 0 0.114084 
87 1 87 0.119971 0.360065 0 -0.0213365 
88 1 88 0.119967 0.400068 0 -0.109329 
89 1 89 0.119963 0.440069 0 -0.0781486 
90 1 90 0.119958 0.480069 0 0.0759509 
91 1 91 0.119952 0.520069 0 0.405828 
92 1 92 0.119942 0.560071 0 0.655047 
93 1 93 0.119937 0.600074 0 0.857544 
94 1 94 0.119931 0.64008 0 0.913889 
95 1 95 0.119931 0.680084 0 0.745856 
96 1 96 0.119926 0.720091 0 0.732853 
97 1 97 0.119919 0.760095 0 0.655267 
98 1 98 0.119909 0.800102 0 0.631429 
99 1 99 0.119898 0.840108 0 0.602495 
100 1 100 0.119885 0.880121 0 0.46112 
101 1 101 0.119864 0.920138 0 0.32719 
102 1 102 0.119835 0.960156 0 -0.0899244 
103 1 103 0.119802 1.00018 0 -0.465552 
104 1 104 0.16 0 0 0 
105 1 105 0.160002 0.0400102 0 0.39621 
106 1 106 0.160003 0.0800199 0 0.383158 
107 1 107 0.160001 0.12003 0 0.308712 
108 1 108 0.159999 0.160041 0 0.339839 
109 1 109 0.159992 0.200051 0 0.508387 
110 1 110 0.159984 0.240061 0 0.496301 
111 1 111 0.159975 0.28007 0 0.495349 
112 1 112 0.159966 0.320078 0 0.30953 
113 1 113 0.159959 0.360084 0 0.119047 
114 1 114 0.159953 0.400089 0 -0.0152328 
115 1 115 0.15995 0.440092 0 -0.0109292 
116 1 116 0.159941 0.480094 0 0.148744 
117 1 117 0.159932 0.520097 0 0.484239 
118 1 118 0.159921 0.560099 0 0.788622 
119 1 119 0.159914 0.600104 0 0.981825 
120 1 120 0.159907 0.640109 0 1.01592 
121 1 121 0.159902 0.680115 0 0.871915 
122 1 122 0.159895 0.720121 0 0.783849 
123 1 123 0.159887 0.760128 0 0.697145 
124 1 124 0.159876 0.800135 0 0.762624 
125 1 125 0.159859 0.840146 0 0.793741 
126 1 126 0.159839 0.880159 0 0.615616 
127 1 127 0.159816 0.920178 0 0.406099 
128 1 128 0.159785 0.9602 0 0.0269046 
129 1 129 0.159751 1.00022 0 -0.306126 
130 1 130 0.2 0 0 0 
131 1 131 0.2 0.0400107 0 0.291007 
132 1 132 0.2 0.0800224 0 0.356464 
133 1 133 0.199996 0.120035 0 0.334629 
134 1 134 0.199992 0.160047 0 0.482887 
135 1 135 0.199983 0.20006 0 0.785155 
136 1 136 0.199974 0.240072 0 0.799609 
137 1 137 0.199963 0.280084 0 0.751707 
138 1 138 0.199954 0.320092 0 0.52231 
139 1 139 0.199946 0.360101 0 0.295486 
140 1 140 0.19994 0.400106 0 0.110058 
141 1 141 0.199934 0.440112 0 0.0900132 
142 1 142 0.199924 0.480116 0 0.24926 
143 1 143 0.199914 0.520121 0 0.594925 
144 1 144 0.199901 0.560126 0 0.942807 
145 1 145 0.199889 0.600131 0 1.1046 
146 1 146 0.199881 0.640138 0 1.06342 
147 1 147 0.199877 0.680145 0 0.911995 
148 1 148 0.199869 0.720154 0 0.794457 
149 1 149 0.199858 0.760161 0 0.711404 
150 1 150 0.199843 0.800172 0 0.773403 
151 1 151 0.199823 0.840183 0 0.853576 
152 1 152 0.199798 0.880199 0 0.731593 
153 1 153 0.199771 0.920217 0 0.529323 
154 1 154 0.199737 0.960238 0 0.278372 
155 1 155 0.199704 1.00026 0 0.0373599 
156 1 156 0.24 0 0 0 
157 1 157 0.239996 0.0400118 0 0.136371 
158 1 158 0.239995 0.0800238 0 0.261298 
159 1 159 0.239989 0.120038 0 0.352962 
160 1 160 0.239983 0.160052 0 0.615041 
161 1 161 0.239973 0.200066 0 0.924076 
162 1 162 0.239963 0.240081 0 0.932218 
163 1 163 0.23995 0.280093 0 0.92891 
164 1 164 0.23994 0.320104 0 0.739543 
165 1 165 0.239932 0.360113 0 0.538939 
166 1 166 0.239923 0.400122 0 0.343959 
167 1 167 0.239917 0.440128 0 0.332816 
168 1 168 0.239904 0.480137 0 0.483324 
169 1 169 0.239892 0.520144 0 0.761801 
170 1 170 0.239876 0.560151 0 1.04212 
171 1 171 0.239864 0.600158 0 1.14611 
172 1 172 0.239852 0.640165 0 1.08725 
173 1 173 0.239843 0.680174 0 0.918999 
174 1 174 0.239832 0.720183 0 0.73949 
175 1 175 0.239822 0.760194 0 0.717239 
176 1 176 0.239804 0.800205 0 0.763594 
177 1 177 0.239784 0.84022 0 0.793648 
178 1 178 0.239755 0.880236 0 0.750388 
179 1 179 0.239725 0.920256 0 0.659424 
180 1 180 0.23969 0.960276 0 0.624819 
181 1 181 0.239654 1.0003 0 0.513173 
182 1 182 0.28 0 0 0 
183 1 183 0.279994 0.0400117 0 0.0495235 
184 1 184 0.27999 0.0800247 0 0.208938 
185 1 185 0.279981 0.120039 0 0.386568 
186 1 186 0.279973 0.160055 0 0.689236 
187 1 187 0.27996 0.200071 0 0.935644 
188 1 188 0.279949 0.240087 0 0.956491 
189 1 189 0.279936 0.2801 0 1.01856 
190 1 190 0.279926 0.320113 0 0.862617 
191 1 191 0.279917 0.360123 0 0.767153 
192 1 192 0.279907 0.400132 0 0.687875 
193 1 193 0.279898 0.440143 0 0.707161 
194 1 194 0.279884 0.480152 0 0.843107 
195 1 195 0.27987 0.520163 0 1.07202 
196 1 196 0.279852 0.560173 0 1.23694 
197 1 197 0.279835 0.600183 0 1.22411 
198 1 198 0.279822 0.640193 0 1.10618 
199 1 199 0.279813 0.680204 0 0.935689 
200 1 200 0.279802 0.720216 0 0.732805 
201 1 201 0.27979 0.760228 0 0.736949 
202 1 202 0.279769 0.800242 0 0.791457 
203 1 203 0.279747 0.840256 0 0.850678 
204 1 204 0.279715 0.880274 0 0.90544 
205 1 205 0.279683 0.920294 0 0.897276 
206 1 206 0.279644 0.960316 0 1.03733 
207 1 207 0.279607 1.00034 0 1.03626 
208 1 208 0.32 0 0 0 
209 1 209 0.319991 0.0400112 0 0.0440909 
210 1 210 0.319984 0.0800251 0 0.234077 
211 1 211 0.319972 0.120041 0 0.4523 
212 1 212 0.319962 0.160058 0 0.728882 
213 1 213 0.319946 0.200076 0 0.925758 
214 1 214 0.319934 0.240092 0 0.963484 
215 1 215 0.319921 0.280108 0 1.02738 
216 1 216 0.31991 0.32012 0 0.954903 
217 1 217 0.319901 0.360132 0 1.00226 
218 1 218 0.319888 0.400143 0 1.034 
219 1 219 0.319877 0.440157 0 1.10132 
220 1 220 0.319861 0.480169 0 1.19996 
221 1 221 0.319844 0.520183 0 1.37627 
222 1 222 0.319824 0.560196 0 1.4444 
223 1 223 0.319807 0.600206 0 1.34874 
224 1 224 0.319789 0.640218 0 1.18202 
225 1 225 0.319773 0.68023 0 0.982439 
226 1 226 0.31976 0.720244 0 0.800453 
227 1 227 0.319748 0.760258 0 0.825549 
228 1 228 0.319728 0.800275 0 0.795402 
229 1 229 0.319707 0.840293 0 0.873951 
230 1 230 0.319672 0.880311 0 1.05814 
231 1 231 0.319638 0.920334 0 1.13435 
232 1 232 0.319598 0.960355 0 1.43686 
233 1 233 0.319557 1.00038 0 1.539 
234 1 234 0.36 0 0 0 
235 1 235 0.359987 0.040011 0 0.155079 
236 1 236 0.359976 0.080026 0 0.39177 
237 1 237 0.359963 0.120043 0 0.59712 
238 1 238 0.35995 0.160061 0 0.774235 
239 1 239 0.359932 0.20008 0 0.868562 
240 1 240 0.359919 0.240098 0 0.886364 
241 1 241 0.359905 0.280114 0 0.93338 
242 1 242 0.359893 0.320127 0 1.0019 
243 1 243 0.359883 0.360141 0 1.19892 
244 1 244 0.359869 0.400154 0 1.31925 
245 1 245 0.359854 0.440169 0 1.48702 
246 1 246 0.359836 0.480185 0 1.55455 
247 1 247 0.359818 0.5202 0 1.57257 
248 1 248 0.359796 0.560216 0 1.50102 
249 1 249 0.359775 0.60023 0 1.36524 
250 1 250 0.359757 0.640244 0 1.2073 
251 1 251 0.359742 0.68026 0 1.06337 
252 1 252 0.359729 0.720275 0 0.915203 
253 1 253 0.359714 0.760292 0 0.982625 
254 1 254 0.35969 0.80031 0 0.987973 
255 1 255 0.359668 0.84033 0 1.1052 
256 1 256 0.35963 0.880351 0 1.35113 
257 1 257 0.359593 0.920374 0 1.44401 
258 1 258 0.359552 0.960397 0 1.78302 
259 1 259 0.359512 1.00042 0 1.91619 
260 1 260 0.4 0 0 0 
261 1 261 0.399983 0.0400116 0 0.305789 
262 1 262 0.399968 0.0800273 0 0.575568 
263 1 263 0.399953 0.120045 0 0.739455 
264 1 264 0.399936 0.160064 0 0.832659 
265 1 265 0.399917 0.200084 0 0.826363 
266 1 266 0.399902 0.240102 0 0.831424 
267 1 267 0.399887 0.28012 0 0.856477 
268 1 268 0.399875 0.320136 0 0.98732 
269 1 269 0.399862 0.360151 0 1.26108 
270 1 270 0.399846 0.400167 0 1.44004 
271 1 271 0.399828 0.440184 0 1.65379 
272 1 272 0.399809 0.480202 0 1.70012 
273 1 273 0.399787 0.520221 0 1.63847 
274 1 274 0.399764 0.560238 0 1.48466 
275 1 275 0.399743 0.600255 0 1.372 
276 1 276 0.39972 0.64027 0 1.226 
277 1 277 0.3997 0.680286 0 1.18252 
278 1 278 0.399681 0.720304 0 1.14642 
279 1 279 0.399667 0.760323 0 1.2302 
280 1 280 0.399645 0.800344 0 1.31042 
281 1 281 0.399621 0.840367 0 1.46108 
282 1 282 0.399582 0.880389 0 1.68892 
283 1 283 0.399546 0.920414 0 1.7833 
284 1 284 0.399505 0.960436 0 2.07055 
285 1 285 0.399466 1.00046 0 2.1556 
286 1 286 0.44 0 0 0 
287 1 287 0.439979 0.0400123 0 0.468188 
288 1 288 0.439959 0.0800284 0 0.770949 
289 1 289 0.439941 0.120047 0 0.873147 
290 1 290 0.439921 0.160067 0 0.889027 
291 1 291 0.439901 0.200087 0 0.785261 
292 1 292 0.439883 0.240105 0 0.729715 
293 1 293 0.439867 0.280124 0 0.68476 
294 1 294 0.439854 0.32014 0 0.841165 
295 1 295 0.439838 0.360158 0 1.18597 
296 1 296 0.439821 0.400177 0 1.42979 
297 1 297 0.4398 0.440196 0 1.65471 
298 1 298 0.439778 0.480217 0 1.65089 
299 1 299 0.439756 0.520238 0 1.54736 
300 1 300 0.439731 0.560259 0 1.36386 
301 1 301 0.439707 0.600279 0 1.29986 
302 1 302 0.439684 0.640299 0 1.20614 
303 1 303 0.439668 0.680318 0 1.29001 
304 1 304 0.439649 0.720337 0 1.40195 
305 1 305 0.439631 0.760359 0 1.53954 
306 1 306 0.439604 0.80038 0 1.69974 
307 1 307 0.439578 0.840406 0 1.86823 
308 1 308 0.439538 0.88043 0 2.08756 
309 1 309 0.439501 0.920454 0 2.18225 
310 1 310 0.43946 0.960477 0 2.29255 
311 1 311 0.439424 1.0005 0 2.23442 
312 1 312 0.48 0 0 0 
313 1 313 0.479973 0.0400129 0 0.554901 
314 1 314 0.479949 0.0800287 0 0.864303 
315 1 315 0.479928 0.120047 0 0.918781 
316 1 316 0.479904 0.160066 0 0.857984 
317 1 317 0.479883 0.200086 0 0.681026 
318 1 318 0.479863 0.240104 0 0.579457 
319 1 319 0.479845 0.280123 0 0.471015 
320 1 320 0.479829 0.320142 0 0.644787 
321 1 321 0.47981 0.360163 0 0.99513 
322 1 322 0.47979 0.400185 0 1.26342 
323 1 323 0.479766 0.440208 0 1.54067 
324 1 324 0.479741 0.480233 0 1.55847 
325 1 325 0.479716 0.520258 0 1.44465 
326 1 326 0.479692 0.560282 0 1.27696 
327 1 327 0.47967 0.600305 0 1.31993 
328 1 328 0.479644 0.640325 0 1.30714 
329 1 329 0.479621 0.680346 0 1.48745 
330 1 330 0.479597 0.720367 0 1.6833 
331 1 331 0.47958 0.760391 0 1.8916 
332 1 332 0.479555 0.800415 0 2.18615 
333 1 333 0.479527 0.840441 0 2.36581 
334 1 334 0.47949 0.880466 0 2.55824 
335 1 335 0.479454 0.920492 0 2.62831 
336 1 336 0.479414 0.960515 0 2.45936 
337 1 337 0.47938 1.00054 0 2.18683 
338 1 338 0.52 0 0 0 
339 1 339 0.51997 0.0400133 0 0.524382 
340 1 340 0.51994 0.0800286 0 0.775892 
341 1 341 0.519914 0.120046 0 0.823997 
342 1 342 0.519887 0.160064 0 0.759533 
343 1 343 0.519864 0.200082 0 0.545747 
344 1 344 0.51984 0.2401 0 0.432821 
345 1 345 0.519819 0.280119 0 0.299826 
346 1 346 0.5198 0.32014 0 0.45941 
347 1 347 0.519778 0.360164 0 0.766339 
348 1 348 0.519756 0.400189 0 1.08185 
349 1 349 0.519728 0.440216 0 1.41111 
350 1 350 0.519703 0.480244 0 1.4498 
351 1 351 0.519677 0.520273 0 1.40825 
352 1 352 0.519651 0.560301 0 1.29567 
353 1 353 0.519626 0.600329 0 1.42233 
354 1 354 0.519603 0.640354 0 1.48044 
355 1 355 0.519587 0.680379 0 1.72344 
356 1 356 0.519564 0.720401 0 2.00568 
357 1 357 0.519543 0.760425 0 2.27741 
358 1 358 0.519513 0.800449 0 2.66775 
359 1 359 0.519483 0.840476 0 2.8937 
360 1 360 0.519447 0.880501 0 3.08916 
361 1 361 0.51941 0.920527 0 3.12475 
362 1 362 0.519371 0.960551 0 2.66508 
363 1 363 0.519341 1.00057 0 2.17137 
364 1 364 0.56 0 0 0 
365 1 365 0.559964 0.0400127 0 0.406187 
366 1 366 0.55993 0.0800267 0 0.583133 
367 1 367 0.5599 0.120042 0 0.62538 
368 1 368 0.559869 0.160059 0 0.589857 
369 1 369 0.559843 0.200077 0 0.393958 
370 1 370 0.559816 0.240094 0 0.289383 
371 1 371 0.559791 0.280115 0 0.162792 
372 1 372 0.559769 0.320138 0 0.325615 
373 1 373 0.559742 0.360165 0 0.636958 
374 1 374 0.559716 0.400194 0 1.02424 
375 1 375 0.559686 0.440225 0 1.3563 
376 1 376 0.559658 0.480256 0 1.40276 
377 1 377 0.559629 0.520288 0 1.46704 
378 1 378 0.559604 0.560319 0 1.44629 
379 1 379 0.559582 0.600349 0 1.6424 
380 1 380 0.559557 0.640375 0 1.75971 
381 1 381 0.559534 0.6804 0 2.0187 
382 1 382 0.559508 0.720424 0 2.34469 
383 1 383 0.55949 0.760451 0 2.68624 
384 1 384 0.559463 0.800476 0 3.12804 
385 1 385 0.559433 0.840504 0 3.38004 
386 1 386 0.559399 0.880531 0 3.54587 
387 1 387 0.559364 0.920558 0 3.50415 
388 1 388 0.559327 0.960581 0 2.83064 
389 1 389 0.5593 1.0006 0 2.18846 
390 1 390 0.6 0 0 0 
391 1 391 0.599961 0.0400116 0 0.163465 
392 1 392 0.599921 0.0800243 0 0.280984 
393 1 393 0.599886 0.120039 0 0.361861 
394 1 394 0.599851 0.160054 0 0.370985 
395 1 395 0.599822 0.200071 0 0.275988 
396 1 396 0.599791 0.240089 0 0.260186 
397 1 397 0.599762 0.280111 0 0.197844 
398 1 398 0.599734 0.320136 0 0.370859 
399 1 399 0.599704 0.360166 0 0.629117 
400 1 400 0.599677 0.400196 0 1.02524 
401 1 401 0.599643 0.44023 0 1.35518 
402 1 402 0.599614 0.480263 0 1.45034 
403 1 403 0.599585 0.520297 0 1.60483 
404 1 404 0.599558 0.560331 0 1.64696 
405 1 405 0.599533 0.600364 0 1.88923 
406 1 406 0.599512 0.640394 0 2.05591 
407 1 407 0.599497 0.680423 0 2.30289 
408 1 408 0.599475 0.720448 0 2.62595 
409 1 409 0.599451 0.760474 0 3.0098 
410 1 410 0.59942 0.800501 0 3.49483 
411 1 411 0.599391 0.84053 0 3.8364 
412 1 412 0.599357 0.880557 0 3.9725 
413 1 413 0.599323 0.920585 0 3.81896 
414 1 414 0.599287 0.960609 0 3.07759 
415 1 415 0.599263 1.00063 0 2.41481 
416 1 416 0.64 0 0 0 
417 1 417 0.639956 0.04001 0 -0.0516028 
418 1 418 0.639913 0.0800213 0 -0.00253732 
419 1 419 0.639873 0.120035 0 0.108582 
420 1 420 0.639833 0.16005 0 0.17338 
421 1 421 0.6398 0.200068 0 0.201263 
422 1 422 0.639765 0.240088 0 0.302363 
423 1 423 0.639732 0.280111 0 0.333665 
424 1 424 0.6397 0.320138 0 0.548634 
425 1 425 0.639666 0.36017 0 0.766113 
426 1 426 0.639634 0.400203 0 1.11769 
427 1 427 0.639599 0.440238 0 1.42682 
428 1 428 0.639568 0.480273 0 1.57558 
429 1 429 0.639534 0.520308 0 1.79463 
430 1 430 0.639507 0.560342 0 1.92031 
431 1 431 0.639486 0.600375 0 2.20764 
432 1 432 0.639463 0.640403 0 2.37275 
433 1 433 0.639439 0.680432 0 2.53775 
434 1 434 0.639415 0.720459 0 2.83836 
435 1 435 0.639394 0.760488 0 3.26121 
436 1 436 0.639369 0.800517 0 3.70772 
437 1 437 0.63934 0.840547 0 4.08604 
438 1 438 0.639308 0.880577 0 4.17639 
439 1 439 0.639278 0.920606 0 3.95189 
440 1 440 0.639245 0.96063 0 3.30206 
441 1 441 0.639222 1.00065 0 2.71986 
442 1 442 0.68 0 0 0 
443 1 443 0.679953 0.0400079 0 -0.170779 
444 1 444 0.679904 0.0800185 0 -0.204176 
445 1 445 0.679859 0.120033 0 -0.105633 
446 1 446 0.679816 0.160048 0 0.0239373 
447 1 447 0.679779 0.200067 0 0.176529 
448 1 448 0.67974 0.240088 0 0.389561 
449 1 449 0.679702 0.280114 0 0.532254 
450 1 450 0.679664 0.320142 0 0.782274 
451 1 451 0.679628 0.360174 0 0.975673 
452 1 452 0.679594 0.400207 0 1.2734 
453 1 453 0.679558 0.440243 0 1.52951 
454 1 454 0.679524 0.480277 0 1.71154 
455 1 455 0.67949 0.520313 0 1.95339 
456 1 456 0.679461 0.560347 0 2.14354 
457 1 457 0.679435 0.600381 0 2.41265 
458 1 458 0.679415 0.640414 0 2.54407 
459 1 459 0.6794 0.680445 0 2.6782 
460 1 460 0.67938 0.720473 0 2.9493 
461 1 461 0.679354 0.760503 0 3.35315 
462 1 462 0.679325 0.800533 0 3.73244 
463 1 463 0.679297 0.840564 0 4.15246 
464 1 464 0.679264 0.880594 0 4.20654 
465 1 465 0.679236 0.920623 0 3.97266 
466 1 466 0.679206 0.960647 0 3.56835 
467 1 467 0.679186 1.00067 0 3.16272 
468 1 468 0.72 0 0 0 
469 1 469 0.719947 0.0400063 0 -0.252256 
470 1 470 0.719895 0.0800168 0 -0.352126 
471 1 471 0.719846 0.120031 0 -0.267441 
472 1 472 0.719799 0.160047 0 -0.0822384 
473 1 473 0.719757 0.200067 0 0.170417 
474 1 474 0.719713 0.24009 0 0.45209 
475 1 475 0.71967 0.280118 0 0.682513 
476 1 476 0.719629 0.320148 0 0.951731 
477 1 477 0.71959 0.360181 0 1.10814 
478 1 478 0.719551 0.400214 0 1.34799 
479 1 479 0.719514 0.44025 0 1.56428 
480 1 480 0.719478 0.480284 0 1.80429 
481 1 481 0.71944 0.52032 0 2.11416 
482 1 482 0.719411 0.560353 0 2.41772 
483 1 483 0.719387 0.600387 0 2.66593 
484 1 484 0.719364 0.640416 0 2.75142 
485 1 485 0.719338 0.680447 0 2.81011 
486 1 486 0.719315 0.720477 0 2.95196 
487 1 487 0.719293 0.760509 0 3.28844 
488 1 488 0.719269 0.80054 0 3.59323 
489 1 489 0.719243 0.840573 0 4.00991 
490 1 490 0.719212 0.880604 0 4.05017 
491 1 491 0.719189 0.920634 0 3.90476 
492 1 492 0.719161 0.960659 0 3.8291 
493 1 493 0.719143 1.00068 0 3.64052 
494 1 494 0.76 0 0 0 
495 1 495 0.759944 0.0400058 0 -0.166087 
496 1 496 0.759886 0.080016 0 -0.293821 
497 1 497 0.759832 0.12003 0 -0.295386 
498 1 498 0.759782 0.160047 0 -0.185294 
499 1 499 0.759734 0.200069 0 0.0619807 
500 1 500 0.759686 0.240093 0 0.396376 
501 1 501 0.759639 0.280121 0 0.71249 
502 1 502 0.759593 0.320151 0 0.975414 
503 1 503 0.759551 0.360183 0 1.1048 
504 1 504 0.759511 0.400215 0 1.31858 
505 1 505 0.759472 0.44025 0 1.54503 
506 1 506 0.759433 0.480284 0 1.8728 
507 1 507 0.759397 0.520319 0 2.22421 
508 1 508 0.759365 0.560352 0 2.58801 
509 1 509 0.759335 0.600388 0 2.77542 
510 1 510 0.759315 0.64042 0 2.82439 
511 1 511 0.759298 0.680454 0 2.85926 
512 1 512 0.759278 0.720485 0 2.91785 
513 1 513 0.75925 0.760517 0 3.222 
514 1 514 0.759222 0.800549 0 3.47524 
515 1 515 0.759197 0.840582 0 3.86883 
516 1 516 0.759167 0.880612 0 3.94164 
517 1 517 0.759143 0.920643 0 3.92734 
518 1 518 0.759119 0.960668 0 4.1321 
519 1 519 0.759106 1.00069 0 4.13489 
520 1 520 0.8 0 0 0 
521 1 521 0.799937 0.0400064 0 -0.0370859 
522 1 522 0.799877 0.0800161 0 -0.20404 
523 1 523 0.799819 0.12003 0 -0.289857 
524 1 524 0.799764 0.160048 0 -0.247535 
525 1 525 0.799711 0.20007 0 -0.0627472 
526 1 526 0.799658 0.240096 0 0.225865 
527 1 527 0.799607 0.280124 0 0.561813 
528 1 528 0.799557 0.320153 0 0.811844 
529 1 529 0.799512 0.360184 0 0.935691 
530 1 530 0.799467 0.400216 0 1.10795 
531 1 531 0.799427 0.440249 0 1.30096 
532 1 532 0.799386 0.480282 0 1.72535 
533 1 533 0.799346 0.520318 0 2.15946 
534 1 534 0.799314 0.56035 0 2.62361 
535 1 535 0.799286 0.600384 0 2.83218 
536 1 536 0.799263 0.640415 0 2.9054 
537 1 537 0.799232 0.680449 0 2.95437 
538 1 538 0.799208 0.720482 0 2.94761 
539 1 539 0.799185 0.760516 0 3.19476 
540 1 540 0.799163 0.800549 0 3.36609 
541 1 541 0.799138 0.840583 0 3.68992 
542 1 542 0.79911 0.880614 0 3.84655 
543 1 543 0.79909 0.920645 0 4.01076 
544 1 544 0.79907 0.960672 0 4.3902 
545 1 545 0.799061 1.0007 0 4.50819 
546 1 546 0.84 0 0 0 
547 1 547 0.839936 0.0400068 0 0.127119 
548 1 548 0.83987 0.0800175 0 -0.0505377 
549 1 549 0.839806 0.120031 0 -0.242025 
550 1 550 0.839746 0.160049 0 -0.295903 
551 1 551 0.839687 0.200071 0 -0.201226 
552 1 552 0.83963 0.240095 0 -0.019553 
553 1 553 0.839575 0.280122 0 0.259336 
554 1 554 0.83952 0.320149 0 0.45283 
555 1 555 0.839473 0.360178 0 0.576775 
556 1 556 0.839426 0.400206 0 0.767598 
557 1 557 0.839384 0.440238 0 0.981001 
558 1 558 0.839341 0.480269 0 1.49813 
559 1 559 0.839303 0.520303 0 1.99953 
560 1 560 0.839268 0.560336 0 2.53915 
561 1 561 0.839233 0.600372 0 2.7724 
562 1 562 0.839211 0.640408 0 2.89806 
563 1 563 0.839189 0.680445 0 3.04311 
564 1 564 0.839169 0.72048 0 3.06263 
565 1 565 0.839141 0.760515 0 3.28715 
566 1 566 0.839113 0.800548 0 3.4406 
567 1 567 0.839088 0.840583 0 3.72714 
568 1 568 0.839062 0.880614 0 3.95672 
569 1 569 0.83904 0.920646 0 4.26273 
570 1 570 0.839025 0.960673 0 4.7459 
571 1 571 0.839021 1.0007 0 4.94663 
572 1 572 0.88 0 0 0 
573 1 573 0.87993 0.0400077 0 0.268477 
574 1 574 0.879862 0.080018 0 0.130316 
575 1 575 0.879793 0.120031 0 -0.143048 
576 1 576 0.879728 0.160049 0 -0.339845 
577 1 577 0.879663 0.200069 0 -0.383592 
578 1 578 0.879601 0.240093 0 -0.308705 
579 1 579 0.879541 0.280117 0 -0.0698001 
580 1 580 0.879485 0.320142 0 0.0921931 
581 1 581 0.879435 0.360168 0 0.223226 
582 1 582 0.879383 0.400194 0 0.418868 
583 1 583 0.879338 0.440223 0 0.618978 
584 1 584 0.879293 0.480253 0 1.16282 
585 1 585 0.879249 0.520286 0 1.67831 
586 1 586 0.879215 0.560319 0 2.27651 
587 1 587 0.879183 0.600354 0 2.62909 
588 1 588 0.879155 0.640388 0 2.90792 
589 1 589 0.87912 0.680426 0 3.19771 
590 1 590 0.879094 0.720464 0 3.30843 
591 1 591 0.879071 0.760503 0 3.55729 
592 1 592 0.879048 0.800539 0 3.73079 
593 1 593 0.879023 0.840575 0 3.96975 
594 1 594 0.879001 0.880608 0 4.23255 
595 1 595 0.878982 0.92064 0 4.61148 
596 1 596 0.87897 0.960668 0 5.03976 
597 1 597 0.878969 1.00069 0 5.22101 
598 1 598 0.92 0 0 0 
599 1 599 0.919929 0.0400086 0 0.221689 
600 1 600 0.919855 0.080019 0 0.123143 
601 1 601 0.919781 0.120032 0 -0.10672 
602 1 602 0.919711 0.160048 0 -0.366258 
603 1 603 0.91964 0.200066 0 -0.535917 
604 1 604 0.919572 0.240086 0 -0.569483 
605 1 605 0.919511 0.280107 0 -0.378953 
606 1 606 0.91945 0.320128 0 -0.240158 
607 1 607 0.919396 0.36015 0 -0.121611 
608 1 608 0.919343 0.400173 0 0.0580747 
609 1 609 0.919296 0.4402 0 0.25934 
610 1 610 0.919248 0.480227 0 0.850154 
611 1 611 0.919206 0.520259 0 1.39651 
612 1 612 0.919167 0.560291 0 2.01533 
613 1 613 0.919127 0.600329 0 2.47273 
614 1 614 0.919099 0.640369 0 2.90805 
615 1 615 0.919074 0.680411 0 3.37176 
616 1 616 0.919051 0.720451 0 3.63483 
617 1 617 0.919022 0.760492 0 3.88028 
618 1 618 0.918995 0.800529 0 4.02925 
619 1 619 0.91897 0.840567 0 4.24374 
620 1 620 0.918948 0.8806 0 4.57289 
621 1 621 0.918928 0.920632 0 5.02085 
622 1 622 0.918919 0.960661 0 5.3449 
623 1 623 0.918923 1.00069 0 5.46707 
624 1 624 0.96 0 0 0 
625 1 625 0.959924 0.0400087 0 0.102379 
626 1 626 0.959848 0.0800183 0 0.00371493 
627 1 627 0.95977 0.12003 0 -0.224092 
628 1 628 0.959693 0.160044 0 -0.5043 
629 1 629 0.959618 0.20006 0 -0.68283 
630 1 630 0.959546 0.240077 0 -0.787917 
631 1 631 0.95948 0.280095 0 -0.689301 
632 1 632 0.959417 0.320114 0 -0.529889 
633 1 633 0.959361 0.360134 0 -0.31038 
634 1 634 0.959303 0.400155 0 -0.0642424 
635 1 635 0.959252 0.440179 0 0.130307 
636 1 636 0.959201 0.480205 0 0.671506 
637 1 637 0.959152 0.520236 0 1.1819 
638 1 638 0.959112 0.560267 0 1.79906 
639 1 639 0.959076 0.600303 0 2.38276 
640 1 640 0.95904 0.640341 0 2.97179 
641 1 641 0.959 0.680383 0 3.56879 
642 1 642 0.958969 0.720426 0 3.99584 
643 1 643 0.958945 0.760471 0 4.26286 
644 1 644 0.958925 0.800511 0 4.37249 
645 1 645 0.958899 0.84055 0 4.53435 
646 1 646 0.95888 0.880585 0 4.88489 
647 1 647 0.958864 0.920619 0 5.37094 
648 1 648 0.958857 0.960649 0 5.62125 
649 1 649 0.958861 1.00068 0 5.70821 
650 1 650 1 0 0 0 
651 1 651 0.999923 0.0400077 0 -0.157605 
652 1 652 0.999842 0.0800169 0 -0.258185 
653 1 653 0.99976 0.120028 0 -0.415052 
654 1 654 0.999679 0.160039 0 -0.683221 
655 1 655 0.999598 0.200052 0 -0.874054 
656 1 656 0.999522 0.240066 0 -0.966604 
657 1 657 0.999453 0.280081 0 -0.810861 
658 1 658 0.999386 0.320097 0 -0.581125 
659 1 659 0.999326 0.360115 0 -0.355846 
660 1 660 0.999267 0.400134 0 -0.0969557 
661 1 661 0.999212 0.440156 0 0.150719 
662 1 662 0.999159 0.480181 0 0.670664 
663 1 663 0.999111 0.520209 0 1.14123 
664 1 664 0.999064 0.560241 0 1.71267 
665 1 665 0.999017 0.600278 0 2.34304 
666 1 666 0.99898 0.64032 0 3.0368 
667 1 667 0.998951 0.680364 0 3.70581 
668 1 668 0.998923 0.720408 0 4.19368 
669 1 669 0.998892 0.760453 0 4.43959 
670 1 670 0.998865 0.800494 0 4.56698 
671 1 671 0.998841 0.840535 0 4.75793 
672 1 672 0.998822 0.880571 0 5.12272 
673 1 673 0.998804 0.920605 0 5.59332 
674 1 674 0.998799 0.960636 0 5.79731 
675 1 675 0.998805 1.00067 0 5.88271 
676 1 676 1.04 0 0 0 
677 1 677 1.03992 0.0400067 0 -0.481154 
678 1 678 1.03983 0.0800148 0 -0.618754 
679 1 679 1.03975 0.120024 0 -0.665072 
680 1 680 1.03966 0.160034 0 -0.832485 
681 1 681 1.03958 0.200045 0 -0.964593 
682 1 682 1.0395 0.240057 0 -1.03329 
683 1 683 1.03943 0.28007 0 -0.895326 
684 1 684 1.03936 0.320085 0 -0.630735 
685 1 685 1.03929 0.360102 0 -0.321731 
686 1 686 1.03923 0.400121 0 0.0316614 
687 1 687 1.03917 0.440143 0 0.346798 
688 1 688 1.03911 0.480167 0 0.820843 
689 1 689 1.03906 0.520193 0 1.25152 
690 1 690 1.03901 0.560223 0 1.76743 
691 1 691 1.03896 0.600257 0 2.3869 
692 1 692 1.03892 0.640293 0 3.11598 
693 1 693 1.03887 0.680336 0 3.79316 
694 1 694 1.03884 0.72038 0 4.31874 
695 1 695 1.03881 0.760426 0 4.5374 
696 1 696 1.03879 0.800469 0 4.57354 
697 1 697 1.03876 0.840512 0 4.70863 
698 1 698 1.03875 0.880551 0 5.1349 
699 1 699 1.03873 0.920588 0 5.66585 
700 1 700 1.03873 0.960622 0 5.89976 
701 1 701 1.03873 1.00066 0 6.02091 
702 1 702 1.08 0 0 0 
703 1 703 1.07992 0.0400054 0 -0.721808 
704 1 704 1.07983 0.0800129 0 -0.949676 
705 1 705 1.07974 0.120021 0 -0.951837 
706 1 706 1.07965 0.160029 0 -0.985559 
707 1 707 1.07956 0.200038 0 -0.979187 
708 1 708 1.07948 0.240048 0 -0.950866 
709 1 709 1.0794 0.28006 0 -0.783964 
710 1 710 1.07933 0.320074 0 -0.468183 
711 1 711 1.07926 0.36009 0 -0.0998755 
712 1 712 1.0792 0.400108 0 0.292748 
713 1 713 1.07913 0.440129 0 0.630403 
714 1 714 1.07907 0.480152 0 1.03935 
715 1 715 1.07902 0.520177 0 1.43935 
716 1 716 1.07896 0.560206 0 1.90077 
717 1 717 1.07891 0.60024 0 2.45839 
718 1 718 1.07886 0.640278 0 3.15095 
719 1 719 1.07882 0.680319 0 3.74572 
720 1 720 1.07879 0.720362 0 4.21224 
721 1 721 1.07875 0.760406 0 4.41043 
722 1 722 1.07872 0.80045 0 4.44205 
723 1 723 1.0787 0.840494 0 4.6106 
724 1 724 1.07868 0.880534 0 5.11809 
725 1 725 1.07866 0.920573 0 5.66406 
726 1 726 1.07866 0.960609 0 5.95758 
727 1 727 1.07867 1.00064 0 6.16214 
728 1 728 1.12 0 0 0 
729 1 729 1.11991 0.040004 0 -0.8032 
730 1 730 1.11982 0.0800101 0 -1.06839 
731 1 731 1.11973 0.120018 0 -1.04377 
732 1 732 1.11963 0.160025 0 -0.979863 
733 1 733 1.11954 0.200033 0 -0.869612 
734 1 734 1.11946 0.240042 0 -0.733823 
735 1 735 1.11938 0.280054 0 -0.544209 
736 1 736 1.1193 0.320067 0 -0.269557 
737 1 737 1.11923 0.360085 0 0.0551958 
738 1 738 1.11916 0.400104 0 0.461634 
739 1 739 1.11909 0.440125 0 0.874413 
740 1 740 1.11903 0.480147 0 1.2683 
741 1 741 1.11897 0.520171 0 1.62161 
742 1 742 1.1189 0.560197 0 1.98977 
743 1 743 1.11885 0.600226 0 2.46442 
744 1 744 1.11879 0.640258 0 3.12161 
745 1 745 1.11874 0.680295 0 3.63982 
746 1 746 1.11869 0.720337 0 4.05197 
747 1 747 1.11866 0.760381 0 4.27769 
748 1 748 1.11864 0.800425 0 4.32637 
749 1 749 1.11861 0.840471 0 4.46462 
750 1 750 1.11859 0.880514 0 4.96364 
751 1 751 1.11858 0.920557 0 5.49195 
752 1 752 1.11858 0.960596 0 5.90617 
753 1 753 1.11858 1.00063 0 6.24403 
754 1 754 1.16 0 0 0 
755 1 755 1.1599 0.0400021 0 -0.777402 
756 1 756 1.15981 0.0800078 0 -1.06133 
757 1 757 1.15971 0.120015 0 -1.02655 
758 1 758 1.15962 0.160021 0 -0.879576 
759 1 759 1.15953 0.200029 0 -0.688232 
760 1 760 1.15944 0.240036 0 -0.508057 
761 1 761 1.15936 0.280047 0 -0.363828 
762 1 762 1.15928 0.320061 0 -0.104501 
763 1 763 1.1592 0.360077 0 0.243881 
764 1 764 1.15913 0.400095 0 0.636676 
765 1 765 1.15906 0.440115 0 1.04303 
766 1 766 1.15899 0.480137 0 1.38925 
767 1 767 1.15893 0.52016 0 1.72262 
768 1 768 1.15886 0.560186 0 2.05715 
769 1 769 1.15879 0.600216 0 2.4519 
770 1 770 1.15873 0.64025 0 3.05443 
771 1 771 1.15869 0.680286 0 3.5192 
772 1 772 1.15864 0.720324 0 3.85023 
773 1 773 1.1586 0.760367 0 4.05095 
774 1 774 1.15857 0.800411 0 4.13559 
775 1 775 1.15854 0.840457 0 4.31568 
776 1 776 1.15852 0.880501 0 4.85533 
777 1 777 1.15851 0.920545 0 5.37119 
778 1 778 1.1585 0.960586 0 5.87357 
779 1 779 1.15851 1.00063 0 6.31635 
780 1 780 1.2 0 0 0 
781 1 781 1.19989 0.0400006 0 -0.635596 
782 1 782 1.1998 0.0800053 0 -0.938563 
783 1 783 1.1997 0.120011 0 -0.958034 
784 1 784 1.1996 0.160017 0 -0.816907 
785 1 785 1.19951 0.200025 0 -0.581022 
786 1 786 1.19942 0.240031 0 -0.298238 
787 1 787 1.19933 0.280042 0 -0.157689 
788 1 788 1.19925 0.320055 0 -0.00115893 
789 1 789 1.19917 0.360072 0 0.243714 