ITEM: TIMESTEP
0
ITEM: NUMBER OF ATOMS
7127
ITEM: BOX BOUNDS sm sm sm
0 4
0 2
0 0
ITEM: ATOMS id type tag x y z vx 
0 1 0 0 0 0 0 
1 1 1 0 0.04 0 0 
2 1 2 0 0.08 0 0 
3 1 3 0 0.12 0 0 
4 1 4 0 0.16 0 0 
5 1 5 0 0.2 0 0 
6 1 6 0 0.24 0 0 
7 1 7 0 0.28 0 0 
8 1 8 0 0.32 0 0 
9 1 9 0 0.36 0 0 
10 1 10 0 0.4 0 0 
11 1 11 0 0.44 0 0 
12 1 12 0 0.48 0 0 
13 1 13 0 0.52 0 0 
14 1 14 0 0.56 0 0 
15 1 15 0 0.6 0 0 
16 1 16 0 0.64 0 0 
17 1 17 0 0.68 0 0 
18 1 18 0 0.72 0 0 
19 1 19 0 0.76 0 0 
20 1 20 0 0.8 0 0 
21 1 21 0 0.84 0 0 
22 1 22 0 0.88 0 0 
23 1 23 0 0.92 0 0 
24 1 24 0 0.96 0 0 
25 1 25 0 1 0 0 
26 1 26 0.04 0 0 0 
27 1 27 0.0399952 0.0399929 0 0.123202 
28 1 28 0.0399951 0.0799886 0 0.182357 
29 1 29 0.0399971 0.119984 0 0.0854246 
30 1 30 0.0399971 0.159979 0 0.000612413 
31 1 31 0.0399971 0.199976 0 -0.119386 
32 1 32 0.0399967 0.239974 0 -0.192659 
33 1 33 0.039994 0.279974 0 -0.213499 
34 1 34 0.0399928 0.319974 0 -0.304979 
35 1 35 0.0399914 0.359975 0 -0.318221 
36 1 36 0.0399881 0.399975 0 -0.279872 
37 1 37 0.0399887 0.439975 0 -0.329358 
38 1 38 0.0399866 0.479973 0 -0.255744 
39 1 39 0.0399851 0.519974 0 -0.305912 
40 1 40 0.0399842 0.559973 0 -0.232059 
41 1 41 0.0399822 0.599978 0 -0.164647 
42 1 42 0.0399836 0.639981 0 -0.181276 
43 1 43 0.0399838 0.679987 0 -0.257573 
44 1 44 0.0399882 0.71999 0 -0.291613 
45 1 45 0.0399862 0.759994 0 -0.483922 
46 1 46 0.0399946 0.799994 0 -0.606719 
47 1 47 0.0399925 0.839997 0 -0.29092 
48 1 48 0.0399958 0.879998 0 -0.225456 
49 1 49 0.0399966 0.92 0 -0.0283963 
50 1 50 0.0399997 0.959999 0 0.178598 
51 1 51 0.0399901 1.00001 0 0.180687 
52 1 52 0.08 0 0 0 
53 1 53 0.079995 0.0399908 0 0.155443 
54 1 54 0.0799945 0.0799814 0 0.18768 
55 1 55 0.0799972 0.119974 0 0.0750406 
56 1 56 0.0799967 0.159964 0 0.0682235 
57 1 57 0.0799939 0.199958 0 -0.0306863 
58 1 58 0.0799927 0.239951 0 -0.228828 
59 1 59 0.0799857 0.279949 0 -0.454258 
60 1 60 0.0799844 0.319947 0 -0.676664 
61 1 61 0.07998 0.359948 0 -0.677503 
62 1 62 0.0799781 0.399946 0 -0.568795 
63 1 63 0.0799759 0.439947 0 -0.586922 
64 1 64 0.079975 0.479944 0 -0.496414 
65 1 65 0.0799685 0.519947 0 -0.571434 
66 1 66 0.0799691 0.559947 0 -0.420532 
67 1 67 0.0799598 0.599955 0 -0.21871 
68 1 68 0.0799651 0.639961 0 -0.157082 
69 1 69 0.0799619 0.679971 0 -0.19662 
70 1 70 0.0799729 0.719977 0 -0.429822 
71 1 71 0.0799735 0.759984 0 -0.683034 
72 1 72 0.0799819 0.799988 0 -1.03185 
73 1 73 0.0799862 0.839994 0 -0.884883 
74 1 74 0.0799881 0.879999 0 -0.530566 
75 1 75 0.0799949 0.920002 0 0.0665183 
76 1 76 0.0799915 0.960009 0 0.36161 
77 1 77 0.0799973 1 0 0.196067 
78 1 78 0.12 0 0 0 
79 1 79 0.119996 0.0399897 0 0.038427 
80 1 80 0.119996 0.079978 0 -0.0107854 
81 1 81 0.119997 0.119966 0 -0.0209778 
82 1 82 0.119997 0.159954 0 0.109798 
83 1 83 0.119992 0.199943 0 0.0921297 
84 1 84 0.119988 0.239933 0 -0.186237 
85 1 85 0.119977 0.279927 0 -0.589512 
86 1 86 0.119974 0.319923 0 -0.888959 
87 1 87 0.119968 0.359922 0 -0.921873 
88 1 88 0.119968 0.399919 0 -0.818859 
89 1 89 0.119965 0.439919 0 -0.754246 
90 1 90 0.119964 0.479918 0 -0.677318 
91 1 91 0.119956 0.519919 0 -0.712767 
92 1 92 0.119952 0.559923 0 -0.501725 
93 1 93 0.119942 0.599928 0 -0.162868 
94 1 94 0.119943 0.639939 0 0.0188871 
95 1 95 0.119945 0.679947 0 0.023798 
96 1 96 0.119951 0.719961 0 -0.437784 
97 1 97 0.119961 0.759967 0 -0.904605 
98 1 98 0.119967 0.799978 0 -1.2348 
99 1 99 0.119973 0.839987 0 -1.31249 
100 1 100 0.119981 0.879993 0 -0.816754 
101 1 101 0.119985 0.920005 0 0.0522947 
102 1 102 0.119993 0.960005 0 0.244673 
103 1 103 0.120001 1.00001 0 -0.0109548 
104 1 104 0.16 0 0 0 
105 1 105 0.159998 0.0399892 0 -0.216706 
106 1 106 0.159998 0.0799749 0 -0.308469 
107 1 107 0.159999 0.11996 0 -0.162422 
108 1 108 0.159997 0.159945 0 0.0079555 
109 1 109 0.159989 0.19993 0 0.0244361 
110 1 110 0.159981 0.239919 0 -0.234028 
111 1 111 0.159968 0.27991 0 -0.680083 
112 1 112 0.159962 0.319904 0 -1.00674 
113 1 113 0.159956 0.359901 0 -1.06818 
114 1 114 0.159955 0.399899 0 -0.907057 
115 1 115 0.159954 0.439898 0 -0.746096 
116 1 116 0.15995 0.479897 0 -0.708189 
117 1 117 0.159942 0.519898 0 -0.685284 
118 1 118 0.159933 0.5599 0 -0.406479 
119 1 119 0.159922 0.599906 0 0.00611493 
120 1 120 0.159919 0.639913 0 0.304641 
121 1 121 0.15992 0.679924 0 0.292587 
122 1 122 0.159929 0.719934 0 -0.238678 
123 1 123 0.159939 0.75995 0 -0.926081 
124 1 124 0.159951 0.799957 0 -1.33028 
125 1 125 0.159957 0.839973 0 -1.40464 
126 1 126 0.159968 0.879981 0 -0.891742 
127 1 127 0.159975 0.91999 0 -0.101417 
128 1 128 0.159989 0.959999 0 -0.0504693 
129 1 129 0.160007 0.999997 0 -0.272522 
130 1 130 0.2 0 0 0 
131 1 131 0.2 0.0399874 0 -0.600049 
132 1 132 0.2 0.0799716 0 -0.754572 
133 1 133 0.199999 0.119955 0 -0.48897 
134 1 134 0.199995 0.159938 0 -0.266222 
135 1 135 0.199984 0.199922 0 -0.134614 
136 1 136 0.199972 0.239908 0 -0.299618 
137 1 137 0.199958 0.279898 0 -0.757936 
138 1 138 0.199948 0.319889 0 -1.04172 
139 1 139 0.199941 0.359886 0 -1.09691 
140 1 140 0.199942 0.399882 0 -0.859798 
141 1 141 0.199941 0.439882 0 -0.618054 
142 1 142 0.19994 0.479879 0 -0.540551 
143 1 143 0.199932 0.51988 0 -0.360704 
144 1 144 0.199921 0.559879 0 -0.0292046 
145 1 145 0.199907 0.599883 0 0.364424 
146 1 146 0.199903 0.639887 0 0.686412 
147 1 147 0.1999 0.679897 0 0.609397 
148 1 148 0.199908 0.719906 0 0.0036124 
149 1 149 0.199917 0.759921 0 -0.778415 
150 1 150 0.19993 0.799936 0 -1.37695 
151 1 151 0.199939 0.839947 0 -1.60618 
152 1 152 0.199953 0.879962 0 -1.11747 
153 1 153 0.199964 0.919969 0 -0.446148 
154 1 154 0.199983 0.959974 0 -0.429845 
155 1 155 0.20001 0.999978 0 -0.547948 
156 1 156 0.24 0 0 0 
157 1 157 0.24 0.039985 0 -0.979687 
158 1 158 0.240001 0.0799679 0 -1.21368 
159 1 159 0.239998 0.11995 0 -0.887126 
160 1 160 0.239991 0.159932 0 -0.589352 
161 1 161 0.239978 0.199916 0 -0.380591 
162 1 162 0.239962 0.2399 0 -0.499589 
163 1 163 0.239945 0.279889 0 -0.912366 
164 1 164 0.239933 0.319879 0 -1.04743 
165 1 165 0.239925 0.359875 0 -1.07084 
166 1 166 0.239928 0.399871 0 -0.803204 
167 1 167 0.239926 0.439868 0 -0.409857 
168 1 168 0.239925 0.479867 0 -0.202452 
169 1 169 0.239917 0.519864 0 0.149556 
170 1 170 0.239904 0.559863 0 0.505633 
171 1 171 0.239891 0.599863 0 0.82971 
172 1 172 0.239881 0.639865 0 1.07924 
173 1 173 0.239878 0.679871 0 0.879322 
174 1 174 0.239884 0.719879 0 0.169223 
175 1 175 0.239892 0.759891 0 -0.726708 
176 1 176 0.239905 0.799905 0 -1.38942 
177 1 177 0.239915 0.839919 0 -1.76691 
178 1 178 0.239934 0.879928 0 -1.45083 
179 1 179 0.23995 0.919937 0 -0.888762 
180 1 180 0.239975 0.959942 0 -0.856101 
181 1 181 0.240004 0.999946 0 -0.878473 
182 1 182 0.28 0 0 0 
183 1 183 0.28 0.039982 0 -1.18522 
184 1 184 0.279999 0.0799644 0 -1.51112 
185 1 185 0.279994 0.119946 0 -1.25096 
186 1 186 0.279985 0.159928 0 -0.940725 
187 1 187 0.279971 0.199912 0 -0.76667 
188 1 188 0.279952 0.239895 0 -0.820916 
189 1 189 0.279933 0.279883 0 -1.06146 
190 1 190 0.27992 0.319872 0 -1.09089 
191 1 191 0.27991 0.359865 0 -1.0495 
192 1 192 0.279913 0.39986 0 -0.745784 
193 1 193 0.279912 0.439855 0 -0.228467 
194 1 194 0.279914 0.479852 0 0.174896 
195 1 195 0.279907 0.519848 0 0.690572 
196 1 196 0.279893 0.559845 0 1.10868 
197 1 197 0.279879 0.599844 0 1.37364 
198 1 198 0.279869 0.639842 0 1.47126 
199 1 199 0.279862 0.679848 0 1.12595 
200 1 200 0.279865 0.719852 0 0.337836 
201 1 201 0.279869 0.759862 0 -0.74508 
202 1 202 0.279881 0.799872 0 -1.57431 
203 1 203 0.279893 0.839883 0 -2.03466 
204 1 204 0.279914 0.879892 0 -1.8674 
205 1 205 0.279933 0.919896 0 -1.42515 
206 1 206 0.27996 0.959905 0 -1.37941 
207 1 207 0.279991 0.999911 0 -1.35073 
208 1 208 0.32 0 0 0 
209 1 209 0.319997 0.0399787 0 -1.12583 
210 1 210 0.319995 0.0799595 0 -1.48643 
211 1 211 0.319989 0.119942 0 -1.41534 
212 1 212 0.319979 0.159924 0 -1.20687 
213 1 213 0.319962 0.199909 0 -1.12772 
214 1 214 0.319943 0.239892 0 -1.13384 
215 1 215 0.319922 0.279879 0 -1.20336 
216 1 216 0.319907 0.319866 0 -1.19827 
217 1 217 0.319897 0.359856 0 -1.06686 
218 1 218 0.319896 0.399849 0 -0.719607 
219 1 219 0.319895 0.439843 0 -0.175712 
220 1 220 0.319895 0.479838 0 0.445762 
221 1 221 0.319887 0.519834 0 1.13891 
222 1 222 0.319876 0.55983 0 1.62729 
223 1 223 0.319862 0.599827 0 1.83392 
224 1 224 0.31985 0.639823 0 1.67323 
225 1 225 0.319842 0.679823 0 1.10446 
226 1 226 0.319841 0.719826 0 0.250951 
227 1 227 0.319843 0.759832 0 -0.888694 
228 1 228 0.319854 0.79984 0 -1.79644 
229 1 229 0.319867 0.839846 0 -2.3672 
230 1 230 0.319892 0.879852 0 -2.36098 
231 1 231 0.319912 0.919858 0 -2.02017 
232 1 232 0.319941 0.959864 0 -1.93877 
233 1 233 0.319973 0.999874 0 -1.85415 
234 1 234 0.36 0 0 0 
235 1 235 0.359994 0.0399754 0 -0.8677 
236 1 236 0.359989 0.0799542 0 -1.23228 
237 1 237 0.359982 0.119937 0 -1.41598 
238 1 238 0.359972 0.159918 0 -1.36916 
239 1 239 0.359955 0.199904 0 -1.37195 
240 1 240 0.359936 0.239887 0 -1.3935 
241 1 241 0.359914 0.279874 0 -1.33476 
242 1 242 0.359897 0.31986 0 -1.26179 
243 1 243 0.359886 0.359847 0 -1.09174 
244 1 244 0.359882 0.399837 0 -0.763803 
245 1 245 0.359881 0.439827 0 -0.23678 
246 1 246 0.359881 0.479821 0 0.536531 
247 1 247 0.359874 0.519815 0 1.31617 
248 1 248 0.359865 0.559811 0 1.84492 
249 1 249 0.35985 0.599806 0 2.03245 
250 1 250 0.35984 0.639803 0 1.75559 
251 1 251 0.35983 0.679801 0 1.09988 
252 1 252 0.359826 0.7198 0 0.177837 
253 1 253 0.359825 0.759804 0 -0.96559 
254 1 254 0.359833 0.799806 0 -1.86887 
255 1 255 0.359846 0.839811 0 -2.5174 
256 1 256 0.359869 0.879815 0 -2.72547 
257 1 257 0.35989 0.91982 0 -2.58665 
258 1 258 0.359918 0.959828 0 -2.50123 
259 1 259 0.359949 0.999836 0 -2.36432 
260 1 260 0.4 0 0 0 
261 1 261 0.399989 0.0399729 0 -0.374327 
262 1 262 0.399982 0.0799499 0 -0.709002 
263 1 263 0.399976 0.119932 0 -1.15588 
264 1 264 0.399965 0.159913 0 -1.35586 
265 1 265 0.399947 0.199898 0 -1.51017 
266 1 266 0.399928 0.239882 0 -1.54855 
267 1 267 0.399906 0.279867 0 -1.39048 
268 1 268 0.399889 0.319852 0 -1.25721 
269 1 269 0.399875 0.359836 0 -1.07757 
270 1 270 0.399868 0.399823 0 -0.782256 
271 1 271 0.399864 0.439812 0 -0.276824 
272 1 272 0.39986 0.479804 0 0.556176 
273 1 273 0.399851 0.519798 0 1.33516 
274 1 274 0.399845 0.559792 0 1.90993 
275 1 275 0.399831 0.599787 0 2.08401 
276 1 276 0.399822 0.639781 0 1.71935 
277 1 277 0.399811 0.679778 0 1.05133 
278 1 278 0.399805 0.719776 0 0.0799773 
279 1 279 0.399803 0.759775 0 -1.03108 
280 1 280 0.399809 0.799776 0 -1.90713 
281 1 281 0.399821 0.839777 0 -2.60712 
282 1 282 0.399843 0.87978 0 -3.02038 
283 1 283 0.399864 0.919786 0 -3.09813 
284 1 284 0.399892 0.959792 0 -2.97978 
285 1 285 0.399923 0.999803 0 -2.78378 
286 1 286 0.44 0 0 0 
287 1 287 0.439987 0.0399712 0 0.218073 
288 1 288 0.439976 0.0799463 0 -0.0880575 
289 1 289 0.439968 0.119925 0 -0.761139 
290 1 290 0.439956 0.159907 0 -1.22012 
291 1 291 0.439939 0.19989 0 -1.57868 
292 1 292 0.43992 0.239874 0 -1.63124 
293 1 293 0.439898 0.279858 0 -1.42904 
294 1 294 0.439882 0.319841 0 -1.24659 
295 1 295 0.439867 0.359824 0 -0.991689 
296 1 296 0.439857 0.399808 0 -0.733881 
297 1 297 0.439851 0.439794 0 -0.317394 
298 1 298 0.439847 0.479784 0 0.453048 
299 1 299 0.439839 0.519775 0 1.19989 
300 1 300 0.439833 0.559768 0 1.85771 
301 1 301 0.43982 0.599763 0 2.00639 
302 1 302 0.439813 0.639758 0 1.59097 
303 1 303 0.439803 0.679754 0 0.95777 
304 1 304 0.439796 0.719752 0 0.0651272 
305 1 305 0.439791 0.75975 0 -0.843045 
306 1 306 0.439794 0.799748 0 -1.63757 
307 1 307 0.439803 0.839748 0 -2.34824 
308 1 308 0.43982 0.879749 0 -3.00495 
309 1 309 0.43984 0.919755 0 -3.36296 
310 1 310 0.439865 0.959762 0 -3.22057 
311 1 311 0.439892 0.999774 0 -2.9853 
312 1 312 0.48 0 0 0 
313 1 313 0.479984 0.0399708 0 0.704966 
314 1 314 0.479971 0.0799431 0 0.451778 
315 1 315 0.479961 0.11992 0 -0.346922 
316 1 316 0.479947 0.159899 0 -1.0136 
317 1 317 0.47993 0.199881 0 -1.52071 
318 1 318 0.479912 0.239864 0 -1.58964 
319 1 319 0.479891 0.279846 0 -1.37998 
320 1 320 0.479875 0.319828 0 -1.15178 
321 1 321 0.47986 0.359809 0 -0.806271 
322 1 322 0.479847 0.399791 0 -0.530559 
323 1 323 0.479838 0.439776 0 -0.162064 
324 1 324 0.479828 0.479764 0 0.537557 
325 1 325 0.479818 0.519755 0 1.18762 
326 1 326 0.479814 0.559748 0 1.83162 
327 1 327 0.479802 0.599741 0 1.95257 
328 1 328 0.479795 0.639735 0 1.55468 
329 1 329 0.479783 0.67973 0 0.909351 
330 1 330 0.479777 0.719726 0 0.0338833 
331 1 331 0.479772 0.759722 0 -0.676956 
332 1 332 0.479773 0.79972 0 -1.41364 
333 1 333 0.479782 0.839719 0 -2.04953 
334 1 334 0.479794 0.879722 0 -2.80094 
335 1 335 0.479812 0.919728 0 -3.37619 
336 1 336 0.479835 0.959736 0 -3.29136 
337 1 337 0.479858 0.99975 0 -3.10758 
338 1 338 0.52 0 0 0 
339 1 339 0.519983 0.0399704 0 1.05446 
340 1 340 0.519968 0.0799405 0 0.906822 
341 1 341 0.519954 0.119915 0 0.12078 
342 1 342 0.519939 0.159891 0 -0.713628 
343 1 343 0.519922 0.199871 0 -1.33111 
344 1 344 0.519903 0.239852 0 -1.45777 
345 1 345 0.519884 0.279832 0 -1.30321 
346 1 346 0.519869 0.319813 0 -0.994648 
347 1 347 0.519855 0.359792 0 -0.59547 
348 1 348 0.519842 0.399773 0 -0.29194 
349 1 349 0.519829 0.439757 0 0.058509 
350 1 350 0.51982 0.479743 0 0.64828 
351 1 351 0.51981 0.519733 0 1.16959 
352 1 352 0.519805 0.559725 0 1.71916 
353 1 353 0.519793 0.599717 0 1.83969 
354 1 354 0.519788 0.639713 0 1.51126 
355 1 355 0.519777 0.679708 0 0.837272 
356 1 356 0.51977 0.719703 0 0.0309762 
357 1 357 0.519762 0.759699 0 -0.451281 
358 1 358 0.519761 0.799696 0 -1.08659 
359 1 359 0.519765 0.839695 0 -1.5942 
360 1 360 0.519771 0.879698 0 -2.38684 
361 1 361 0.519785 0.919706 0 -3.10768 
362 1 362 0.519803 0.959717 0 -3.13869 
363 1 363 0.51982 0.999733 0 -3.08614 
364 1 364 0.56 0 0 0 
365 1 365 0.559982 0.0399693 0 1.15954 
366 1 366 0.559966 0.0799384 0 1.0895 
367 1 367 0.55995 0.119909 0 0.465169 
368 1 368 0.559931 0.159884 0 -0.354021 
369 1 369 0.559914 0.19986 0 -0.976335 
370 1 370 0.559896 0.239839 0 -1.15025 
371 1 371 0.559881 0.279817 0 -1.07358 
372 1 372 0.559866 0.319796 0 -0.677358 
373 1 373 0.559852 0.359775 0 -0.222938 
374 1 374 0.559838 0.399755 0 0.137789 
375 1 375 0.559821 0.439739 0 0.497219 
376 1 376 0.559808 0.479726 0 0.911386 
377 1 377 0.559795 0.519715 0 1.26569 
378 1 378 0.559787 0.559706 0 1.69612 
379 1 379 0.559777 0.599699 0 1.7591 
380 1 380 0.559769 0.639692 0 1.42562 
381 1 381 0.559755 0.679685 0 0.693915 
382 1 382 0.559749 0.71968 0 -0.0469765 
383 1 383 0.55974 0.759675 0 -0.361952 
384 1 384 0.559737 0.799672 0 -0.871813 
385 1 385 0.559738 0.839674 0 -1.18524 
386 1 386 0.559739 0.87968 0 -1.90358 
387 1 387 0.559751 0.919691 0 -2.64432 
388 1 388 0.559765 0.959705 0 -2.83571 
389 1 389 0.559779 0.999724 0 -2.97733 
390 1 390 0.6 0 0 0 
391 1 391 0.599984 0.0399683 0 1.05317 
392 1 392 0.599967 0.0799372 0 1.15794 
393 1 393 0.599947 0.119905 0 0.824025 
394 1 394 0.599927 0.159878 0 0.119196 
395 1 395 0.59991 0.19985 0 -0.446749 
396 1 396 0.599892 0.239826 0 -0.651919 
397 1 397 0.599879 0.279802 0 -0.614832 
398 1 398 0.599865 0.319779 0 -0.231283 
399 1 399 0.599852 0.359758 0 0.18591 
400 1 400 0.599837 0.399738 0 0.607434 
401 1 401 0.599818 0.439721 0 0.896732 
402 1 402 0.599806 0.479707 0 1.13068 
403 1 403 0.599791 0.519695 0 1.3613 
404 1 404 0.599781 0.559685 0 1.63301 
405 1 405 0.59977 0.599678 0 1.62689 
406 1 406 0.599761 0.639672 0 1.30013 
407 1 407 0.599747 0.679665 0 0.601943 
408 1 408 0.599739 0.719661 0 -0.0373902 
409 1 409 0.599726 0.759657 0 -0.277797 
410 1 410 0.59972 0.799655 0 -0.679435 
411 1 411 0.599715 0.839659 0 -0.838138 
412 1 412 0.59971 0.879667 0 -1.4342 
413 1 413 0.599717 0.919681 0 -2.10278 
414 1 414 0.599725 0.959698 0 -2.49093 
415 1 415 0.599734 0.999719 0 -2.84856 
416 1 416 0.64 0 0 0 
417 1 417 0.639983 0.0399677 0 0.776961 
418 1 418 0.639967 0.0799358 0 1.11447 
419 1 419 0.639947 0.119903 0 1.13418 
420 1 420 0.639926 0.159872 0 0.646166 
421 1 421 0.639909 0.199842 0 0.252001 
422 1 422 0.639892 0.239814 0 0.00948759 
423 1 423 0.639881 0.279787 0 -0.00562848 
424 1 424 0.639867 0.319764 0 0.374265 
425 1 425 0.639853 0.359741 0 0.758458 
426 1 426 0.639837 0.399721 0 1.24531 
427 1 427 0.639814 0.439705 0 1.45617 
428 1 428 0.639797 0.479691 0 1.50108 
429 1 429 0.639778 0.51968 0 1.53981 
430 1 430 0.639766 0.559671 0 1.56009 
431 1 431 0.639753 0.599662 0 1.49656 
432 1 432 0.639738 0.639654 0 1.19015 
433 1 433 0.639721 0.679647 0 0.520898 
434 1 434 0.639711 0.719642 0 -0.0633019 
435 1 435 0.639696 0.75964 0 -0.295693 
436 1 436 0.639687 0.79964 0 -0.53797 
437 1 437 0.639679 0.839648 0 -0.537581 
438 1 438 0.639672 0.879659 0 -0.95336 
439 1 439 0.639676 0.919676 0 -1.45715 
440 1 440 0.63968 0.959696 0 -2.01027 
441 1 441 0.639687 0.99972 0 -2.54108 
442 1 442 0.68 0 0 0 
443 1 443 0.679985 0.0399672 0 0.444735 
444 1 444 0.679969 0.0799346 0 0.979899 
445 1 445 0.679948 0.119901 0 1.37881 
446 1 446 0.679928 0.159868 0 1.20123 
447 1 447 0.679911 0.199835 0 1.00647 
448 1 448 0.679893 0.239805 0 0.776675 
449 1 449 0.679883 0.279776 0 0.724481 
450 1 450 0.679868 0.31975 0 1.05825 
451 1 451 0.679854 0.359727 0 1.39745 
452 1 452 0.679837 0.399707 0 1.85058 
453 1 453 0.679814 0.439689 0 1.9676 
454 1 454 0.679796 0.479675 0 1.86329 
455 1 455 0.679776 0.519662 0 1.68074 
456 1 456 0.67976 0.559653 0 1.49071 
457 1 457 0.679744 0.599644 0 1.38751 
458 1 458 0.679729 0.639638 0 1.07763 
459 1 459 0.679712 0.679633 0 0.533797 
460 1 460 0.679696 0.719628 0 0.0673268 
461 1 461 0.679677 0.759628 0 -0.215826 
462 1 462 0.679664 0.799631 0 -0.364006 
463 1 463 0.679648 0.839641 0 -0.302929 
464 1 464 0.679636 0.879655 0 -0.530169 
465 1 465 0.679634 0.919674 0 -0.820032 
466 1 466 0.679632 0.959696 0 -1.51482 
467 1 467 0.679637 0.999721 0 -2.17356 
468 1 468 0.72 0 0 0 
469 1 469 0.719984 0.0399669 0 0.221053 
470 1 470 0.71997 0.0799339 0 0.876681 
471 1 471 0.719952 0.119899 0 1.55032 
472 1 472 0.719932 0.159865 0 1.68836 
473 1 473 0.719914 0.19983 0 1.6672 
474 1 474 0.719896 0.239798 0 1.48559 
475 1 475 0.719884 0.279767 0 1.44938 
476 1 476 0.719868 0.31974 0 1.70805 
477 1 477 0.719852 0.359717 0 2.00914 
478 1 478 0.719833 0.399697 0 2.40515 
479 1 479 0.719809 0.43968 0 2.4388 
480 1 480 0.719786 0.479666 0 2.24722 
481 1 481 0.719762 0.519653 0 1.88379 
482 1 482 0.719743 0.559643 0 1.50967 
483 1 483 0.719724 0.599633 0 1.30919 
484 1 484 0.719702 0.639625 0 0.937121 
485 1 485 0.719681 0.679618 0 0.538703 
486 1 486 0.71966 0.719614 0 0.211975 
487 1 487 0.71964 0.759615 0 -0.105135 
488 1 488 0.719623 0.799621 0 -0.162762 
489 1 489 0.719604 0.839633 0 -0.0549197 
490 1 490 0.719592 0.87965 0 -0.0418219 
491 1 491 0.719586 0.919671 0 -0.096621 
492 1 492 0.719581 0.959695 0 -0.925884 
493 1 493 0.719583 0.999723 0 -1.68138 
494 1 494 0.76 0 0 0 
495 1 495 0.759987 0.0399665 0 0.131 
496 1 496 0.759972 0.0799338 0 0.841373 
497 1 497 0.759954 0.119899 0 1.66309 
498 1 498 0.759935 0.159864 0 2.07893 
499 1 499 0.759916 0.199828 0 2.22756 
500 1 500 0.759897 0.239794 0 2.09548 
501 1 501 0.759882 0.279763 0 2.04284 
502 1 502 0.759864 0.319735 0 2.18895 
503 1 503 0.759847 0.359711 0 2.44301 
504 1 504 0.759827 0.399691 0 2.78056 
505 1 505 0.759805 0.439672 0 2.76592 
506 1 506 0.759782 0.479657 0 2.47433 
507 1 507 0.759759 0.519642 0 1.96209 
508 1 508 0.759737 0.559631 0 1.48128 
509 1 509 0.759714 0.599621 0 1.21121 
510 1 510 0.759693 0.639614 0 0.901483 
511 1 511 0.75967 0.679608 0 0.721238 
512 1 512 0.759643 0.719605 0 0.489254 
513 1 513 0.759618 0.759607 0 0.133369 
514 1 514 0.759594 0.799614 0 0.125262 
515 1 515 0.759568 0.839628 0 0.238341 
516 1 516 0.759552 0.879646 0 0.4619 
517 1 517 0.759538 0.919668 0 0.584472 
518 1 518 0.759527 0.959693 0 -0.310959 
519 1 519 0.759527 0.999722 0 -1.07602 
520 1 520 0.8 0 0 0 
521 1 521 0.799985 0.0399672 0 0.191613 
522 1 522 0.799972 0.0799347 0 0.881466 
523 1 523 0.799958 0.1199 0 1.72413 
524 1 524 0.799938 0.159866 0 2.33368 
525 1 525 0.799917 0.19983 0 2.60673 
526 1 526 0.799897 0.239796 0 2.54188 
527 1 527 0.799877 0.279764 0 2.48153 
528 1 528 0.799857 0.319736 0 2.52108 
529 1 529 0.799838 0.359711 0 2.67033 
530 1 530 0.799816 0.39969 0 2.83841 
531 1 531 0.799795 0.439671 0 2.81886 
532 1 532 0.79977 0.479656 0 2.54803 
533 1 533 0.799743 0.51964 0 2.00886 
534 1 534 0.799719 0.559628 0 1.47935 
535 1 535 0.799692 0.599616 0 1.10226 
536 1 536 0.799663 0.639605 0 0.855907 
537 1 537 0.799633 0.679598 0 0.833558 
538 1 538 0.799603 0.719595 0 0.668246 
539 1 539 0.799574 0.759598 0 0.376506 
540 1 540 0.799546 0.799607 0 0.442373 
541 1 541 0.799519 0.839622 0 0.554586 
542 1 542 0.799503 0.879641 0 0.946647 
543 1 543 0.799484 0.919664 0 1.16497 
544 1 544 0.799469 0.959691 0 0.234995 
545 1 545 0.799465 0.999722 0 -0.492086 
546 1 546 0.84 0 0 0 
547 1 547 0.839987 0.0399674 0 0.384571 
548 1 548 0.839972 0.0799357 0 0.994091 
549 1 549 0.839958 0.119903 0 1.72689 
550 1 550 0.839939 0.15987 0 2.46293 
551 1 551 0.839917 0.199835 0 2.87891 
552 1 552 0.839896 0.239801 0 2.90792 
553 1 553 0.839872 0.279769 0 2.82715 
554 1 554 0.839849 0.319741 0 2.76038 
555 1 555 0.83983 0.359714 0 2.81336 
556 1 556 0.839808 0.399692 0 2.82076 
557 1 557 0.83979 0.439672 0 2.76564 
558 1 558 0.839766 0.479653 0 2.47084 
559 1 559 0.839741 0.519636 0 1.97418 
560 1 560 0.839712 0.559622 0 1.48335 
561 1 561 0.839683 0.59961 0 1.05459 
562 1 562 0.839654 0.639601 0 0.914349 
563 1 563 0.839621 0.679595 0 1.00539 
564 1 564 0.839583 0.719593 0 0.900544 
565 1 565 0.839547 0.759596 0 0.662664 
566 1 566 0.83951 0.799606 0 0.692063 
567 1 567 0.839477 0.839621 0 0.772033 
568 1 568 0.839455 0.87964 0 1.30565 
569 1 569 0.83943 0.919663 0 1.63579 
570 1 570 0.83941 0.95969 0 0.813325 
571 1 571 0.839402 0.999721 0 0.194254 
572 1 572 0.88 0 0 0 
573 1 573 0.879984 0.0399676 0 0.504212 
574 1 574 0.87997 0.0799366 0 1.07144 
575 1 575 0.879957 0.119906 0 1.72392 
576 1 576 0.879939 0.159874 0 2.56309 
577 1 577 0.879916 0.199842 0 3.16457 
578 1 578 0.879894 0.23981 0 3.34243 
579 1 579 0.879867 0.279777 0 3.25202 
580 1 580 0.879843 0.319749 0 3.03715 
581 1 581 0.879821 0.359722 0 2.90636 
582 1 582 0.879798 0.3997 0 2.71483 
583 1 583 0.87978 0.439678 0 2.61572 
584 1 584 0.879754 0.47966 0 2.32503 
585 1 585 0.879726 0.519643 0 1.92 
586 1 586 0.879693 0.559628 0 1.47525 
587 1 587 0.87966 0.599615 0 1.02127 
588 1 588 0.87962 0.639603 0 0.940973 
589 1 589 0.879578 0.679596 0 1.03722 
590 1 590 0.879535 0.719593 0 1.01607 
591 1 591 0.879495 0.759597 0 0.860078 
592 1 592 0.879457 0.799608 0 0.849028 
593 1 593 0.879424 0.839623 0 0.934595 
594 1 594 0.879399 0.879642 0 1.47522 
595 1 595 0.879371 0.919666 0 1.80528 
596 1 596 0.879346 0.959692 0 1.16932 
597 1 597 0.879331 0.999724 0 0.702035 
598 1 598 0.92 0 0 0 
599 1 599 0.919984 0.0399671 0 0.52496 
600 1 600 0.919967 0.0799364 0 1.03729 
601 1 601 0.919953 0.119908 0 1.6742 
602 1 602 0.919937 0.159878 0 2.65885 
603 1 603 0.919915 0.199847 0 3.467 
604 1 604 0.919892 0.239817 0 3.82619 
605 1 605 0.919864 0.279785 0 3.81359 
606 1 606 0.919838 0.319758 0 3.52699 
607 1 607 0.919816 0.35973 0 3.22549 
608 1 608 0.919795 0.399707 0 2.8365 
609 1 609 0.919777 0.439685 0 2.64641 
610 1 610 0.919751 0.479666 0 2.34445 
611 1 611 0.919724 0.519648 0 2.03695 
612 1 612 0.919686 0.559633 0 1.63296 
613 1 613 0.919649 0.599621 0 1.20885 
614 1 614 0.919607 0.639612 0 1.16618 
615 1 615 0.919563 0.679607 0 1.1787 
616 1 616 0.919513 0.719606 0 1.15663 
617 1 617 0.919463 0.75961 0 0.95415 
618 1 618 0.919417 0.799619 0 0.867676 
619 1 619 0.919378 0.839633 0 0.984752 
620 1 620 0.919347 0.879652 0 1.43772 
621 1 621 0.919314 0.919675 0 1.76065 
622 1 622 0.919283 0.959702 0 1.3955 
623 1 623 0.919262 0.999734 0 1.08812 
624 1 624 0.96 0 0 0 
625 1 625 0.959979 0.039967 0 0.50641 
626 1 626 0.959962 0.0799359 0 0.986956 
627 1 627 0.959948 0.119908 0 1.62951 
628 1 628 0.959932 0.15988 0 2.76075 
629 1 629 0.959912 0.199852 0 3.81872 
630 1 630 0.959889 0.239824 0 4.39311 
631 1 631 0.959862 0.279794 0 4.49782 
632 1 632 0.959835 0.319769 0 4.17258 
633 1 633 0.959811 0.359742 0 3.71223 
634 1 634 0.959787 0.399719 0 3.1407 
635 1 635 0.959766 0.439699 0 2.79817 
636 1 636 0.959736 0.47968 0 2.45267 
637 1 637 0.959705 0.519664 0 2.24972 
638 1 638 0.959663 0.559649 0 1.89703 
639 1 639 0.959621 0.599636 0 1.50828 
640 1 640 0.959567 0.639626 0 1.41131 
641 1 641 0.959514 0.67962 0 1.29515 
642 1 642 0.959459 0.719619 0 1.27063 
643 1 643 0.959406 0.759624 0 1.0231 
644 1 644 0.959361 0.799634 0 0.892165 
645 1 645 0.959321 0.839649 0 0.962674 
646 1 646 0.959286 0.879668 0 1.21063 
647 1 647 0.95925 0.919691 0 1.52958 
648 1 648 0.959215 0.959719 0 1.43081 
649 1 649 0.959186 0.999751 0 1.24177 
650 1 650 1 0 0 0 
651 1 651 0.999979 0.039967 0 0.354036 
652 1 652 0.999957 0.079936 0 0.863052 
653 1 653 0.99994 0.119909 0 1.63845 
654 1 654 0.999927 0.159882 0 2.93858 
655 1 655 0.999908 0.199856 0 4.20145 
656 1 656 0.999885 0.23983 0 4.94851 
657 1 657 0.999858 0.279803 0 5.18336 
658 1 658 0.999831 0.319778 0 4.84179 
659 1 659 0.999808 0.359752 0 4.24558 
660 1 660 0.999783 0.39973 0 3.5502 
661 1 661 0.99976 0.439709 0 3.08949 
662 1 662 0.99973 0.479691 0 2.71541 
663 1 663 0.999698 0.519674 0 2.5547 
664 1 664 0.999651 0.55966 0 2.24131 
665 1 665 0.999606 0.59965 0 1.96212 
666 1 666 0.999551 0.639643 0 1.81209 
667 1 667 0.999497 0.679641 0 1.57873 
668 1 668 0.999434 0.719642 0 1.52445 
669 1 669 0.999373 0.759648 0 1.21529 
670 1 670 0.99932 0.799658 0 1.05319 
671 1 671 0.999272 0.839673 0 0.997834 
672 1 672 0.999229 0.879692 0 0.952465 
673 1 673 0.999189 0.919717 0 1.16692 
674 1 674 0.999148 0.959745 0 1.25518 
675 1 675 0.999112 0.999778 0 1.17408 
676 1 676 1.04 0 0 0 
677 1 677 1.03998 0.0399687 0 0.346756 
678 1 678 1.03995 0.0799381 0 0.90521 
679 1 679 1.03993 0.119911 0 1.73422 
680 1 680 1.03992 0.159886 0 3.06351 
681 1 681 1.0399 0.199862 0 4.41453 
682 1 682 1.03988 0.239838 0 5.28745 
683 1 683 1.03985 0.279813 0 5.65438 
684 1 684 1.03983 0.319789 0 5.34186 
685 1 685 1.0398 0.359764 0 4.67923 
686 1 686 1.03977 0.399743 0 3.89018 
687 1 687 1.03974 0.439722 0 3.28629 
688 1 688 1.03971 0.479706 0 2.88767 
689 1 689 1.03967 0.519692 0 2.80014 
690 1 690 1.03962 0.559679 0 2.58523 
691 1 691 1.03957 0.599668 0 2.42777 
692 1 692 1.0395 0.639661 0 2.19217 
693 1 693 1.03944 0.679658 0 1.85002 
694 1 694 1.03938 0.719661 0 1.71637 
695 1 695 1.03931 0.75967 0 1.35706 
696 1 696 1.03926 0.799682 0 1.19352 
697 1 697 1.03921 0.8397 0 0.977556 
698 1 698 1.03916 0.879722 0 0.704586 
699 1 699 1.03912 0.919748 0 0.84537 
700 1 700 1.03907 0.959778 0 1.11855 
701 1 701 1.03903 0.999812 0 1.1781 
702 1 702 1.08 0 0 0 
703 1 703 1.07998 0.0399704 0 0.386628 
704 1 704 1.07995 0.0799417 0 0.990955 
705 1 705 1.07992 0.119915 0 1.83699 
706 1 706 1.07991 0.159892 0 3.11497 
707 1 707 1.07989 0.199869 0 4.45226 
708 1 708 1.07987 0.239846 0 5.37517 
709 1 709 1.07984 0.279822 0 5.82369 
710 1 710 1.07982 0.319798 0 5.53504 
711 1 711 1.07979 0.359774 0 4.84408 
712 1 712 1.07976 0.399751 0 4.02008 
713 1 713 1.07973 0.439731 0 3.31326 
714 1 714 1.07969 0.479715 0 2.85094 
715 1 715 1.07965 0.5197 0 2.74084 
716 1 716 1.0796 0.559689 0 2.56668 
717 1 717 1.07955 0.599681 0 2.5076 
718 1 718 1.07948 0.63968 0 2.27382 
719 1 719 1.07942 0.679682 0 1.99395 
720 1 720 1.07935 0.719689 0 1.87142 
721 1 721 1.07928 0.7597 0 1.59108 
722 1 722 1.07922 0.799714 0 1.52517 
723 1 723 1.07916 0.839734 0 1.16187 
724 1 724 1.0791 0.879758 0 0.664799 
725 1 725 1.07905 0.919787 0 0.561105 
726 1 726 1.079 0.959819 0 0.844799 
727 1 727 1.07895 0.999855 0 1.0242 
728 1 728 1.12 0 0 0 
729 1 729 1.11997 0.039972 0 0.44903 
730 1 730 1.11994 0.079945 0 1.10217 
731 1 731 1.11992 0.119919 0 1.96422 
732 1 732 1.11989 0.159897 0 3.10371 
733 1 733 1.11988 0.199875 0 4.26092 
734 1 734 1.11985 0.239853 0 5.12662 
735 1 735 1.11983 0.279831 0 5.60872 
736 1 736 1.1198 0.319808 0 5.38115 
737 1 737 1.11978 0.359784 0 4.74213 
738 1 738 1.11974 0.399763 0 3.89663 
739 1 739 1.1197 0.439743 0 3.10166 
740 1 740 1.11966 0.479729 0 2.59318 
741 1 741 1.11961 0.519717 0 2.46658 
742 1 742 1.11956 0.559708 0 2.38587 
743 1 743 1.1195 0.599702 0 2.45556 
744 1 744 1.11943 0.6397 0 2.21768 
745 1 745 1.11936 0.679704 0 1.9532 
746 1 746 1.11928 0.719713 0 1.81041 
747 1 747 1.11922 0.759728 0 1.6629 
748 1 748 1.11915 0.799746 0 1.6776 
749 1 749 1.11909 0.83977 0 1.19364 
750 1 750 1.11903 0.879797 0 0.630884 
751 1 751 1.11897 0.919829 0 0.366794 
752 1 752 1.11892 0.959864 0 0.74198 
753 1 753 1.11887 0.999902 0 1.1175 
754 1 754 1.16 0 0 0 
755 1 755 1.15997 0.0399724 0 0.602626 
756 1 756 1.15994 0.0799465 0 1.24006 
757 1 757 1.1599 0.119921 0 1.95683 
758 1 758 1.15988 0.159899 0 2.82359 
759 1 759 1.15986 0.199878 0 3.76618 
760 1 760 1.15984 0.239856 0 4.63297 
761 1 761 1.15982 0.279835 0 5.17885 
762 1 762 1.15979 0.319812 0 5.06104 
763 1 763 1.15976 0.359791 0 4.53732 
764 1 764 1.15972 0.39977 0 3.70084 
765 1 765 1.15968 0.439752 0 2.88009 
766 1 766 1.15964 0.479739 0 2.30947 
767 1 767 1.15959 0.519728 0 2.05818 
768 1 768 1.15953 0.559722 0 1.93717 
769 1 769 1.15947 0.599722 0 2.02147 
770 1 770 1.1594 0.639727 0 1.82478 
771 1 771 1.15934 0.679738 0 1.70608 
772 1 772 1.15925 0.719751 0 1.66615 
773 1 773 1.15918 0.759768 0 1.68504 
774 1 774 1.1591 0.799789 0 1.75431 
775 1 775 1.15903 0.839814 0 1.28312 
776 1 776 1.15896 0.879842 0 0.737832 
777 1 777 1.1589 0.919876 0 0.218288 
778 1 778 1.15884 0.959912 0 0.66128 
779 1 779 1.15879 0.999952 0 1.26548 
780 1 780 1.2 0 0 0 
781 1 781 1.19997 0.0399724 0 0.516611 
782 1 782 1.19993 0.0799465 0 1.15398 
783 1 783 1.1999 0.11992 0 1.85474 
784 1 784 1.19987 0.159897 0 2.5315 
785 1 785 1.19985 0.199876 0 3.26599 