ITEM: TIMESTEP
0
ITEM: NUMBER OF ATOMS
6875
ITEM: BOX BOUNDS sm sm sm
0 4
0 2
0 0
ITEM: ATOMS id type tag x y z damage s11 s22 s33 s12 s13 s23 vx T ienergy 
1 1 1 0.02 0.02 0 0 -2.92092e-06 -2.33015e-06 -1.68242e-06 -9.43111e-07 0 0 -1.97769e-05 0 0 
2 1 2 0.02 0.06 0 0 -6.65025e-06 -3.54508e-06 -3.26655e-06 -1.24035e-06 0 0 -4.84113e-05 0 0 
3 1 3 0.02 0.1 0 0 -9.58918e-06 -4.66071e-06 -4.56561e-06 -1.34038e-06 0 0 -6.67873e-05 0 0 
4 1 4 0.02 0.14 0 0 -1.23149e-05 -5.90353e-06 -5.83712e-06 -1.4151e-06 0 0 -8.54956e-05 0 0 
5 1 5 0.02 0.18 0 0 -1.50305e-05 -7.1525e-06 -7.10736e-06 -1.47247e-06 0 0 -0.000103947 0 0 
6 1 6 0.02 0.22 0 0 -1.77963e-05 -8.44635e-06 -8.40805e-06 -1.52247e-06 0 0 -0.000122639 0 0 
7 1 7 0.02 0.26 0 0 -2.06204e-05 -9.76129e-06 -9.7342e-06 -1.56333e-06 0 0 -0.000141613 0 0 
8 1 8 0.02 0.3 0 0 -2.34955e-05 -1.10977e-05 -1.10835e-05 -1.58965e-06 0 0 -0.00016074 0 0 
9 1 9 0.02 0.34 0 0 -2.63927e-05 -1.24377e-05 -1.24411e-05 -1.59632e-06 0 0 -0.000179799 0 0 
10 1 10 0.02 0.38 0 0 -2.92739e-05 -1.37647e-05 -1.37894e-05 -1.57759e-06 0 0 -0.000198475 0 0 
11 1 11 0.02 0.42 0 0 -3.20894e-05 -1.50552e-05 -1.5105e-05 -1.52849e-06 0 0 -0.000216396 0 0 
12 1 12 0.02 0.46 0 0 -3.47812e-05 -1.62829e-05 -1.63608e-05 -1.44452e-06 0 0 -0.000233142 0 0 
13 1 13 0.02 0.5 0 0 -3.72844e-05 -1.74188e-05 -1.75267e-05 -1.32239e-06 0 0 -0.000248261 0 0 
14 1 14 0.02 0.54 0 0 -3.95277e-05 -1.84298e-05 -1.85694e-05 -1.15966e-06 0 0 -0.0002613 0 0 
15 1 15 0.02 0.58 0 0 -4.14401e-05 -1.92865e-05 -1.94566e-05 -9.56031e-07 0 0 -0.000271797 0 0 
16 1 16 0.02 0.62 0 0 -4.29447e-05 -1.99487e-05 -2.01508e-05 -7.11275e-07 0 0 -0.000279356 0 0 
17 1 17 0.02 0.66 0 0 -4.39802e-05 -2.04014e-05 -2.06276e-05 -4.29918e-07 0 0 -0.000283553 0 0 
18 1 18 0.02 0.7 0 0 -4.44673e-05 -2.05826e-05 -2.08418e-05 -1.11633e-07 0 0 -0.000284186 0 0 
19 1 19 0.02 0.74 0 0 -4.43921e-05 -2.05396e-05 -2.08039e-05 2.29687e-07 0 0 -0.000280835 0 0 
20 1 20 0.02 0.78 0 0 -4.36549e-05 -2.01056e-05 -2.04287e-05 6.05993e-07 0 0 -0.000273805 0 0 
21 1 21 0.02 0.82 0 0 -4.24133e-05 -1.95845e-05 -1.98639e-05 9.82033e-07 0 0 -0.000262574 0 0 
22 1 22 0.02 0.86 0 0 -4.04761e-05 -1.83057e-05 -1.88335e-05 1.42582e-06 0 0 -0.00024888 0 0 
23 1 23 0.02 0.9 0 0 -3.85723e-05 -1.7637e-05 -1.80093e-05 1.92198e-06 0 0 -0.000233552 0 0 
24 1 24 0.02 0.94 0 0 -3.67276e-05 -1.42958e-05 -1.63477e-05 2.63974e-06 0 0 -0.000210581 0 0 
25 1 25 0.02 0.98 0 0 -3.88072e-05 -1.51614e-05 -1.72913e-05 4.56548e-06 0 0 -0.000258174 0 0 
26 1 26 0.06 0.02 0 0 -5.44634e-06 -5.65199e-06 -3.55587e-06 -2.58407e-06 0 0 -6.54912e-05 0 0 
27 1 27 0.06 0.06 0 0 -1.07543e-05 -6.47304e-06 -5.51957e-06 -2.63246e-06 0 0 -0.000166053 0 0 
28 1 28 0.06 0.1 0 0 -1.52263e-05 -7.71186e-06 -7.34929e-06 -2.61067e-06 0 0 -0.000235586 0 0 
29 1 29 0.06 0.14 0 0 -1.95195e-05 -9.55603e-06 -9.3157e-06 -2.71345e-06 0 0 -0.000302663 0 0 
30 1 30 0.06 0.18 0 0 -2.37486e-05 -1.14295e-05 -1.12709e-05 -2.80313e-06 0 0 -0.000368293 0 0 
31 1 31 0.06 0.22 0 0 -2.8064e-05 -1.34234e-05 -1.32924e-05 -2.89238e-06 0 0 -0.000435003 0 0 
32 1 32 0.06 0.26 0 0 -3.24542e-05 -1.54341e-05 -1.53432e-05 -2.96558e-06 0 0 -0.000503044 0 0 
33 1 33 0.06 0.3 0 0 -3.69112e-05 -1.747e-05 -1.74235e-05 -3.01166e-06 0 0 -0.000572204 0 0 
34 1 34 0.06 0.34 0 0 -4.13819e-05 -1.94896e-05 -1.9503e-05 -3.01997e-06 0 0 -0.000641894 0 0 
35 1 35 0.06 0.38 0 0 -4.58043e-05 -2.14686e-05 -2.1554e-05 -2.97958e-06 0 0 -0.000711209 0 0 
36 1 36 0.06 0.42 0 0 -5.00963e-05 -2.33679e-05 -2.35377e-05 -2.88119e-06 0 0 -0.000779024 0 0 
37 1 37 0.06 0.46 0 0 -5.41646e-05 -2.51468e-05 -2.54111e-05 -2.71649e-06 0 0 -0.000843995 0 0 
38 1 38 0.06 0.5 0 0 -5.79077e-05 -2.67633e-05 -2.71283e-05 -2.47968e-06 0 0 -0.000904595 0 0 
39 1 39 0.06 0.54 0 0 -6.12144e-05 -2.81655e-05 -2.8637e-05 -2.16644e-06 0 0 -0.000959184 0 0 
40 1 40 0.06 0.58 0 0 -6.39814e-05 -2.932e-05 -2.98934e-05 -1.77686e-06 0 0 -0.00100599 0 0 
41 1 41 0.06 0.62 0 0 -6.60881e-05 -3.01544e-05 -3.08358e-05 -1.3106e-06 0 0 -0.00104332 0 0 
42 1 42 0.06 0.66 0 0 -6.74634e-05 -3.06855e-05 -3.14466e-05 -7.77203e-07 0 0 -0.00106933 0 0 
43 1 43 0.06 0.7 0 0 -6.7962e-05 -3.07527e-05 -3.16278e-05 -1.75818e-07 0 0 -0.00108279 0 0 
44 1 44 0.06 0.74 0 0 -6.76403e-05 -3.05779e-05 -3.14688e-05 4.65509e-07 0 0 -0.00108189 0 0 
45 1 45 0.06 0.78 0 0 -6.62148e-05 -2.95926e-05 -3.06964e-05 1.16345e-06 0 0 -0.00106699 0 0 
46 1 46 0.06 0.82 0 0 -6.42199e-05 -2.8858e-05 -2.98218e-05 1.85552e-06 0 0 -0.00103684 0 0 
47 1 47 0.06 0.86 0 0 -6.07657e-05 -2.59403e-05 -2.77803e-05 2.56579e-06 0 0 -0.000995246 0 0 
48 1 48 0.06 0.9 0 0 -5.83762e-05 -2.54349e-05 -2.68528e-05 3.37653e-06 0 0 -0.000953084 0 0 
49 1 49 0.06 0.94 0 0 -5.35617e-05 -1.58454e-05 -2.22378e-05 3.24798e-06 0 0 -0.000898795 0 0 
50 1 50 0.06 0.98 0 0 -5.60815e-05 -1.68024e-05 -2.33518e-05 5.02472e-06 0 0 -0.00102996 0 0 
51 1 51 0.1 0.02 0 0 -1.08357e-05 -1.16293e-05 -7.1977e-06 -5.71537e-06 0 0 -0.00014276 0 0 
52 1 52 0.1 0.06 0 0 -2.09048e-05 -1.29538e-05 -1.08482e-05 -5.6635e-06 0 0 -0.00036789 0 0 
53 1 53 0.1 0.1 0 0 -2.93446e-05 -1.51075e-05 -1.42423e-05 -5.50997e-06 0 0 -0.000528252 0 0 
54 1 54 0.1 0.14 0 0 -3.74566e-05 -1.84802e-05 -1.79219e-05 -5.66912e-06 0 0 -0.000679134 0 0 
55 1 55 0.1 0.18 0 0 -4.54628e-05 -2.19642e-05 -2.16034e-05 -5.83697e-06 0 0 -0.000825579 0 0 
56 1 56 0.1 0.22 0 0 -5.36456e-05 -2.57187e-05 -2.5428e-05 -6.01746e-06 0 0 -0.000973856 0 0 
57 1 57 0.1 0.26 0 0 -6.19772e-05 -2.95103e-05 -2.93123e-05 -6.16756e-06 0 0 -0.00112445 0 0 
58 1 58 0.1 0.3 0 0 -7.04563e-05 -3.33623e-05 -3.32631e-05 -6.26335e-06 0 0 -0.00127681 0 0 
59 1 59 0.1 0.34 0 0 -7.89897e-05 -3.71916e-05 -3.72241e-05 -6.28182e-06 0 0 -0.0014294 0 0 
60 1 60 0.1 0.38 0 0 -8.74736e-05 -4.096e-05 -4.11497e-05 -6.20031e-06 0 0 -0.00157994 0 0 
61 1 61 0.1 0.42 0 0 -9.57644e-05 -4.45981e-05 -4.49717e-05 -5.99958e-06 0 0 -0.00172566 0 0 
62 1 62 0.1 0.46 0 0 -0.000103697 -4.80349e-05 -4.86143e-05 -5.66226e-06 0 0 -0.00186339 0 0 
63 1 63 0.1 0.5 0 0 -0.000111087 -5.11967e-05 -5.1995e-05 -5.17604e-06 0 0 -0.00198961 0 0 
64 1 64 0.1 0.54 0 0 -0.000117724 -5.39841e-05 -5.50147e-05 -4.53147e-06 0 0 -0.00210071 0 0 
65 1 65 0.1 0.58 0 0 -0.000123413 -5.63409e-05 -5.75925e-05 -3.72822e-06 0 0 -0.0021929 0 0 
66 1 66 0.1 0.62 0 0 -0.000127906 -5.81103e-05 -5.95989e-05 -2.76486e-06 0 0 -0.00226282 0 0 
67 1 67 0.1 0.66 0 0 -0.000131065 -5.93474e-05 -6.10075e-05 -1.661e-06 0 0 -0.00230684 0 0 
68 1 68 0.1 0.7 0 0 -0.000132564 -5.96747e-05 -6.15928e-05 -4.15087e-07 0 0 -0.00232282 0 0 
69 1 69 0.1 0.74 0 0 -0.000132542 -5.96173e-05 -6.15671e-05 9.1462e-07 0 0 -0.00230757 0 0 
70 1 70 0.1 0.78 0 0 -0.000130325 -5.78406e-05 -6.02877e-05 2.35212e-06 0 0 -0.00226229 0 0 
71 1 71 0.1 0.82 0 0 -0.000127109 -5.67476e-05 -5.89071e-05 3.77541e-06 0 0 -0.00218622 0 0 
72 1 72 0.1 0.86 0 0 -0.000120808 -5.08883e-05 -5.5011e-05 5.14153e-06 0 0 -0.00208651 0 0 
73 1 73 0.1 0.9 0 0 -0.000116645 -5.00557e-05 -5.34103e-05 6.60153e-06 0 0 -0.00199516 0 0 
74 1 74 0.1 0.94 0 0 -0.000107597 -3.14708e-05 -4.45568e-05 6.0137e-06 0 0 -0.00189433 0 0 
75 1 75 0.1 0.98 0 0 -0.000112857 -3.36895e-05 -4.69529e-05 9.39679e-06 0 0 -0.00214646 0 0 
76 1 76 0.14 0.02 0 0 -2.19531e-05 -2.37971e-05 -1.46582e-05 -1.20006e-05 0 0 -0.000294604 0 0 
77 1 77 0.14 0.06 0 0 -4.19681e-05 -2.62649e-05 -2.18616e-05 -1.18428e-05 0 0 -0.000759056 0 0 
78 1 78 0.14 0.1 0 0 -5.85817e-05 -3.03553e-05 -2.84951e-05 -1.14651e-05 0 0 -0.00108957 0 0 
79 1 79 0.14 0.14 0 0 -7.45032e-05 -3.68844e-05 -3.56882e-05 -1.17517e-05 0 0 -0.00139967 0 0 
80 1 80 0.14 0.18 0 0 -9.01927e-05 -4.36494e-05 -4.28825e-05 -1.2075e-05 0 0 -0.00169963 0 0 
81 1 81 0.14 0.22 0 0 -0.000106189 -5.09571e-05 -5.03491e-05 -1.24339e-05 0 0 -0.00200305 0 0 
82 1 82 0.14 0.26 0 0 -0.000122416 -5.83119e-05 -5.79047e-05 -1.27309e-05 0 0 -0.00231144 0 0 
83 1 83 0.14 0.3 0 0 -0.000138856 -6.57538e-05 -6.55564e-05 -1.29146e-05 0 0 -0.00262422 0 0 
84 1 84 0.14 0.34 0 0 -0.000155299 -7.30979e-05 -7.31776e-05 -1.29359e-05 0 0 -0.00293869 0 0 
85 1 85 0.14 0.38 0 0 -0.000171516 -8.02594e-05 -8.0668e-05 -1.27482e-05 0 0 -0.00325079 0 0 
86 1 86 0.14 0.42 0 0 -0.000187201 -8.70898e-05 -8.78819e-05 -1.23123e-05 0 0 -0.0035554 0 0 
87 1 87 0.14 0.46 0 0 -0.00020201 -9.34409e-05 -9.46615e-05 -1.15933e-05 0 0 -0.00384647 0 0 
88 1 88 0.14 0.5 0 0 -0.000215575 -9.91675e-05 -0.000100842 -1.05676e-05 0 0 -0.00411717 0 0 
89 1 89 0.14 0.54 0 0 -0.000227486 -0.000104073 -0.00010623 -9.21748e-06 0 0 -0.00436018 0 0 
90 1 90 0.14 0.58 0 0 -0.000237386 -0.000108069 -0.000110683 -7.54461e-06 0 0 -0.00456762 0 0 
91 1 91 0.14 0.62 0 0 -0.00024482 -0.000110846 -0.000113954 -5.54747e-06 0 0 -0.00473208 0 0 
92 1 92 0.14 0.66 0 0 -0.000249592 -0.000112582 -0.000116039 -3.26897e-06 0 0 -0.00484541 0 0 
93 1 93 0.14 0.7 0 0 -0.000251088 -0.000112481 -0.000116486 -7.06463e-07 0 0 -0.00490232 0 0 
94 1 94 0.14 0.74 0 0 -0.000249721 -0.000111753 -0.000115815 2.01812e-06 0 0 -0.00489532 0 0 
95 1 95 0.14 0.78 0 0 -0.000244112 -0.000107528 -0.000112665 4.94709e-06 0 0 -0.00482591 0 0 
96 1 96 0.14 0.82 0 0 -0.000236878 -0.000104987 -0.000109532 7.83015e-06 0 0 -0.00469249 0 0 
97 1 97 0.14 0.86 0 0 -0.000223645 -9.27152e-05 -0.000101361 1.05271e-05 0 0 -0.00450919 0 0 
98 1 98 0.14 0.9 0 0 -0.000215028 -9.09401e-05 -9.80313e-05 1.33817e-05 0 0 -0.00434272 0 0 
99 1 99 0.14 0.94 0 0 -0.000197114 -5.41089e-05 -8.04908e-05 1.19749e-05 0 0 -0.00414943 0 0 
100 1 100 0.14 0.98 0 0 -0.000208163 -5.88283e-05 -8.55431e-05 1.88541e-05 0 0 -0.00467431 0 0 
101 1 101 0.18 0.02 0 0 -4.3995e-05 -4.81859e-05 -2.95344e-05 -2.44622e-05 0 0 -0.000589382 0 0 
102 1 102 0.18 0.06 0 0 -8.33865e-05 -5.26258e-05 -4.35779e-05 -2.39932e-05 0 0 -0.0015162 0 0 
103 1 103 0.18 0.1 0 0 -0.000115953 -6.03727e-05 -5.64942e-05 -2.31514e-05 0 0 -0.00217257 0 0 
104 1 104 0.18 0.14 0 0 -0.000147078 -7.30015e-05 -7.05128e-05 -2.36926e-05 0 0 -0.00278604 0 0 
105 1 105 0.18 0.18 0 0 -0.000177685 -8.61012e-05 -8.45162e-05 -2.43121e-05 0 0 -0.00337628 0 0 
106 1 106 0.18 0.22 0 0 -0.000208886 -0.000100308 -9.90649e-05 -2.50154e-05 0 0 -0.00397115 0 0 
107 1 107 0.18 0.26 0 0 -0.000240557 -0.000114616 -0.000113796 -2.55977e-05 0 0 -0.00457335 0 0 
108 1 108 0.18 0.3 0 0 -0.000272708 -0.000129134 -0.000128749 -2.59557e-05 0 0 -0.00518124 0 0 
109 1 109 0.18 0.34 0 0 -0.000304976 -0.000143506 -0.000143692 -2.59916e-05 0 0 -0.00578875 0 0 
110 1 110 0.18 0.38 0 0 -0.000336975 -0.0001576 -0.00015846 -2.56126e-05 0 0 -0.00638696 0 0 
111 1 111 0.18 0.42 0 0 -0.000368165 -0.00017115 -0.000172795 -2.47415e-05 0 0 -0.00696489 0 0 
112 1 112 0.18 0.46 0 0 -0.00039793 -0.000183894 -0.000186415 -2.33084e-05 0 0 -0.00750995 0 0 
113 1 113 0.18 0.5 0 0 -0.000425593 -0.000195574 -0.00019902 -2.12657e-05 0 0 -0.00800831 0 0 
114 1 114 0.18 0.54 0 0 -0.000450368 -0.000205803 -0.000210235 -1.85755e-05 0 0 -0.00844583 0 0 
115 1 115 0.18 0.58 0 0 -0.000471554 -0.00021443 -0.000219787 -1.52403e-05 0 0 -0.00880774 0 0 
116 1 116 0.18 0.62 0 0 -0.000488192 -0.00022078 -0.000227152 -1.12528e-05 0 0 -0.00908104 0 0 
117 1 117 0.18 0.66 0 0 -0.000499868 -0.000225252 -0.000232326 -6.6997e-06 0 0 -0.00925165 0 0 
118 1 118 0.18 0.7 0 0 -0.000505207 -0.000226085 -0.000234304 -1.57137e-06 0 0 -0.00931186 0 0 
119 1 119 0.18 0.74 0 0 -0.000505043 -0.000225872 -0.000234183 3.88289e-06 0 0 -0.0092495 0 0 
120 1 120 0.18 0.78 0 0 -0.000496357 -0.000218444 -0.00022902 9.74264e-06 0 0 -0.00907048 0 0 
121 1 121 0.18 0.82 0 0 -0.000484548 -0.000214689 -0.000224034 1.55129e-05 0 0 -0.00877496 0 0 
122 1 122 0.18 0.86 0 0 -0.000460446 -0.000190921 -0.000208696 2.08387e-05 0 0 -0.00839141 0 0 
123 1 123 0.18 0.9 0 0 -0.000445681 -0.000188627 -0.00020323 2.66125e-05 0 0 -0.00806084 0 0 
124 1 124 0.18 0.94 0 0 -0.000411826 -0.000116019 -0.00016912 2.36273e-05 0 0 -0.00767622 0 0 
125 1 125 0.18 0.98 0 0 -0.000434937 -0.000125839 -0.000179671 3.7499e-05 0 0 -0.00873086 0 0 
126 1 126 0.22 0.02 0 0 -8.65387e-05 -9.57938e-05 -5.84187e-05 -4.87741e-05 0 0 -0.00115175 0 0 
127 1 127 0.22 0.06 0 0 -0.000162585 -0.000103518 -8.52586e-05 -4.75263e-05 0 0 -0.00295802 0 0 
128 1 128 0.22 0.1 0 0 -0.000225198 -0.000117844 -0.000109909 -4.56936e-05 0 0 -0.00423041 0 0 
129 1 129 0.22 0.14 0 0 -0.000284816 -0.000141733 -0.000136665 -4.66801e-05 0 0 -0.00541491 0 0 
130 1 130 0.22 0.18 0 0 -0.000343205 -0.000166513 -0.000163312 -4.78271e-05 0 0 -0.00654956 0 0 
131 1 131 0.22 0.22 0 0 -0.000402548 -0.00019343 -0.000190949 -4.91535e-05 0 0 -0.00769155 0 0 
132 1 132 0.22 0.26 0 0 -0.000462542 -0.000220426 -0.000218821 -5.02351e-05 0 0 -0.00884723 0 0 
133 1 133 0.22 0.3 0 0 -0.000523168 -0.000247702 -0.000246984 -5.08689e-05 0 0 -0.0100153 0 0 
134 1 134 0.22 0.34 0 0 -0.000583631 -0.000274504 -0.000274944 -5.08603e-05 0 0 -0.011186 0 0 
135 1 135 0.22 0.38 0 0 -0.000643104 -0.000300543 -0.000302342 -5.00287e-05 0 0 -0.0123442 0 0 
136 1 136 0.22 0.42 0 0 -0.000700456 -0.000325264 -0.000328638 -4.82255e-05 0 0 -0.0134712 0 0 
137 1 137 0.22 0.46 0 0 -0.000754432 -0.000348127 -0.000353257 -4.53184e-05 0 0 -0.0145448 0 0 
138 1 138 0.22 0.5 0 0 -0.000803707 -0.000368639 -0.000375617 -4.12215e-05 0 0 -0.0155401 0 0 
139 1 139 0.22 0.54 0 0 -0.000846782 -0.000386043 -0.000394994 -3.58673e-05 0 0 -0.0164307 0 0 
140 1 140 0.22 0.58 0 0 -0.000882431 -0.00040015 -0.000410936 -2.92712e-05 0 0 -0.0171879 0 0 
141 1 141 0.22 0.62 0 0 -0.000908932 -0.000409645 -0.000422469 -2.14232e-05 0 0 -0.0177854 0 0 
142 1 142 0.22 0.66 0 0 -0.000925807 -0.000415584 -0.000429779 -1.2505e-05 0 0 -0.0181932 0 0 
143 1 143 0.22 0.7 0 0 -0.000930533 -0.000414375 -0.000430905 -2.49367e-06 0 0 -0.0183937 0 0 
144 1 144 0.22 0.74 0 0 -0.000925283 -0.000411719 -0.000428372 8.11346e-06 0 0 -0.0183594 0 0 
145 1 145 0.22 0.78 0 0 -0.00090407 -0.000394837 -0.000416167 1.94658e-05 0 0 -0.018099 0 0 
146 1 146 0.22 0.82 0 0 -0.000878304 -0.000386428 -0.000405217 3.06345e-05 0 0 -0.017612 0 0 
147 1 147 0.22 0.86 0 0 -0.000829385 -0.000338308 -0.000374126 4.07319e-05 0 0 -0.016947 0 0 
148 1 148 0.22 0.9 0 0 -0.000800743 -0.000334105 -0.000363602 5.19052e-05 0 0 -0.0163934 0 0 
149 1 149 0.22 0.94 0 0 -0.000735438 -0.000192975 -0.000297461 4.48621e-05 0 0 -0.0157054 0 0 
150 1 150 0.22 0.98 0 0 -0.000780861 -0.000212054 -0.000318127 7.08469e-05 0 0 -0.0178121 0 0 
151 1 151 0.26 0.02 0 0 -0.000166729 -0.00018661 -0.000113209 -9.52241e-05 0 0 -0.00220033 0 0 
152 1 152 0.26 0.06 0 0 -0.000310379 -0.00019949 -0.00016336 -9.21446e-05 0 0 -0.00564135 0 0 
153 1 153 0.26 0.1 0 0 -0.000428185 -0.000225284 -0.000209369 -8.82412e-05 0 0 -0.00805116 0 0 
154 1 154 0.26 0.14 0 0 -0.000539964 -0.000269439 -0.000259331 -8.99682e-05 0 0 -0.0102832 0 0 
155 1 155 0.26 0.18 0 0 -0.000649078 -0.00031531 -0.000308987 -9.20251e-05 0 0 -0.0124079 0 0 
156 1 156 0.26 0.22 0 0 -0.00075984 -0.000365338 -0.000360504 -9.44693e-05 0 0 -0.014538 0 0 
157 1 157 0.26 0.26 0 0 -0.000871751 -0.000415489 -0.000412428 -9.64449e-05 0 0 -0.0166842 0 0 
158 1 158 0.26 0.3 0 0 -0.000984965 -0.000466257 -0.000464968 -9.75716e-05 0 0 -0.018843 0 0 
159 1 159 0.26 0.34 0 0 -0.00109815 -0.000516246 -0.00051725 -9.7478e-05 0 0 -0.0209934 0 0 
160 1 160 0.26 0.38 0 0 -0.00121 -0.000565038 -0.000568717 -9.58262e-05 0 0 -0.023104 0 0 
161 1 161 0.26 0.42 0 0 -0.00131862 -0.000611701 -0.000618471 -9.23386e-05 0 0 -0.0251364 0 0 
162 1 162 0.26 0.46 0 0 -0.0014219 -0.000655331 -0.000665541 -8.67655e-05 0 0 -0.0270464 0 0 
163 1 163 0.26 0.5 0 0 -0.00151756 -0.000695123 -0.000708941 -7.89444e-05 0 0 -0.0287861 0 0 
164 1 164 0.26 0.54 0 0 -0.00160287 -0.000729654 -0.000747338 -6.87397e-05 0 0 -0.0303067 0 0 
165 1 165 0.26 0.58 0 0 -0.00167558 -0.000758692 -0.000779936 -5.61792e-05 0 0 -0.0315574 0 0 
166 1 166 0.26 0.62 0 0 -0.00173221 -0.000779479 -0.00080474 -4.12275e-05 0 0 -0.0324948 0 0 
167 1 167 0.26 0.66 0 0 -0.0017718 -0.000794295 -0.000822174 -2.4237e-05 0 0 -0.0330704 0 0 
168 1 168 0.26 0.7 0 0 -0.00178894 -0.000795479 -0.000828046 -5.14363e-06 0 0 -0.0332616 0 0 
169 1 169 0.26 0.74 0 0 -0.00178795 -0.000794836 -0.000827521 1.50855e-05 0 0 -0.0330269 0 0 
170 1 170 0.26 0.78 0 0 -0.00175622 -0.000765932 -0.000808094 3.67089e-05 0 0 -0.0323931 0 0 
171 1 171 0.26 0.82 0 0 -0.00171657 -0.000754782 -0.000791819 5.80334e-05 0 0 -0.0313736 0 0 
172 1 172 0.26 0.86 0 0 -0.00163144 -0.000665036 -0.000735787 7.69414e-05 0 0 -0.0300557 0 0 
173 1 173 0.26 0.9 0 0 -0.00158586 -0.000661569 -0.000720073 9.84203e-05 0 0 -0.0290292 0 0 
174 1 174 0.26 0.94 0 0 -0.00146806 -0.000395106 -0.000596954 8.39527e-05 0 0 -0.0277442 0 0 
175 1 175 0.26 0.98 0 0 -0.00155848 -0.000432907 -0.000638035 0.000133665 0 0 -0.0317925 0 0 
176 1 176 0.3 0.02 0 0 -0.000314291 -0.00035587 -0.000214718 -0.000182004 0 0 -0.00410888 0 0 
177 1 177 0.3 0.06 0 0 -0.000579402 -0.000376205 -0.000306174 -0.000174829 0 0 -0.0105167 0 0 
178 1 178 0.3 0.0999999 0 0 -0.000795869 -0.000421231 -0.000389956 -0.0001667 0 0 -0.0149783 0 0 
179 1 179 0.3 0.14 0 0 -0.00100036 -0.000500661 -0.000480923 -0.000169563 0 0 -0.0190892 0 0 
180 1 180 0.3 0.18 0 0 -0.00119901 -0.000583231 -0.000571025 -0.000173083 0 0 -0.0229785 0 0 
181 1 181 0.3 0.22 0 0 -0.00139995 -0.000673516 -0.000664335 -0.000177402 0 0 -0.0268671 0 0 
182 1 182 0.3 0.26 0 0 -0.00160209 -0.000763624 -0.000757972 -0.000180819 0 0 -0.0307789 0 0 
183 1 183 0.3 0.3 0 0 -0.00180562 -0.000854476 -0.000852292 -0.000182623 0 0 -0.0347139 0 0 
184 1 184 0.3 0.34 0 0 -0.0020078 -0.000943239 -0.000945511 -0.000182111 0 0 -0.03864 0 0 
185 1 185 0.3 0.38 0 0 -0.00220594 -0.00102905 -0.00103649 -0.000178655 0 0 -0.0425074 0 0 
186 1 186 0.3 0.42 0 0 -0.00239627 -0.00111005 -0.00112342 -0.00017175 0 0 -0.0462545 0 0 
187 1 187 0.299999 0.46 0 0 -0.00257466 -0.00118443 -0.00120441 -0.000160945 0 0 -0.0498091 0 0 
188 1 188 0.299999 0.5 0 0 -0.00273681 -0.00125075 -0.00127762 -0.000145965 0 0 -0.0530901 0 0 
189 1 189 0.299999 0.54 0 0 -0.00287774 -0.00130631 -0.00134057 -0.00012658 0 0 -0.0560131 0 0 
190 1 190 0.299999 0.58 0 0 -0.00299378 -0.00135111 -0.0013921 -0.000102885 0 0 -0.0584848 0 0 
191 1 191 0.299999 0.62 0 0 -0.00307893 -0.00137988 -0.0014286 -7.48243e-05 0 0 -0.0604226 0 0 
192 1 192 0.299999 0.66 0 0 -0.00313269 -0.00139809 -0.00145166 -4.31054e-05 0 0 -0.0617287 0 0 
193 1 193 0.299999 0.7 0 0 -0.00314539 -0.00139055 -0.00145332 -7.58957e-06 0 0 -0.0623522 0 0 
194 1 194 0.299999 0.74 0 0 -0.00312731 -0.00138211 -0.00144482 2.98895e-05 0 0 -0.0622045 0 0 
195 1 195 0.299999 0.78 0 0 -0.00305426 -0.00132 -0.00140151 6.97648e-05 0 0 -0.0613244 0 0 
196 1 196 0.299999 0.82 0 0 -0.00297239 -0.0012963 -0.00136769 0.000109096 0 0 -0.0597396 0 0 
197 1 197 0.299999 0.86 0 0 -0.00280847 -0.00112295 -0.00125963 0.000143032 0 0 -0.0575822 0 0 
198 1 198 0.299999 0.9 0 0 -0.00272584 -0.00111815 -0.00123161 0.000182673 0 0 -0.0560162 0 0 
199 1 199 0.299999 0.94 0 0 -0.00251017 -0.000624068 -0.00100421 0.000151236 0 0 -0.0538588 0 0 
200 1 200 0.299999 0.98 0 0 -0.0026803 -0.00069442 -0.00108126 0.000240198 0 0 -0.0615652 0 0 
201 1 201 0.34 0.02 0 0 -0.000579306 -0.000663949 -0.000398336 -0.000340398 0 0 -0.00749365 0 0 
202 1 202 0.34 0.0599999 0 0 -0.00105705 -0.000693898 -0.000561 -0.00032446 0 0 -0.0191472 0 0 
203 1 203 0.34 0.0999999 0 0 -0.0014454 -0.000769991 -0.000709806 -0.00030792 0 0 -0.0272124 0 0 
204 1 204 0.34 0.14 0 0 -0.00181055 -0.000909069 -0.000871364 -0.00031236 0 0 -0.0345982 0 0 
205 1 205 0.34 0.18 0 0 -0.00216362 -0.0010539 -0.00103089 -0.000318091 0 0 -0.0415316 0 0 
206 1 206 0.339999 0.22 0 0 -0.00251987 -0.001213 -0.00119601 -0.000325465 0 0 -0.0484309 0 0 
207 1 207 0.339999 0.26 0 0 -0.00287755 -0.00137151 -0.0013614 -0.000331183 0 0 -0.0553366 0 0 
208 1 208 0.339999 0.3 0 0 -0.00323763 -0.0015315 -0.00152803 -0.000333983 0 0 -0.0622482 0 0 
209 1 209 0.339999 0.34 0 0 -0.00359571 -0.00168788 -0.00169287 -0.000332583 0 0 -0.0691003 0 0 
210 1 210 0.339999 0.38 0 0 -0.0039478 -0.00183957 -0.00185428 -0.000325872 0 0 -0.0757954 0 0 
211 1 211 0.339999 0.42 0 0 -0.00428807 -0.00198361 -0.00200946 -0.000312964 0 0 -0.082213 0 0 
212 1 212 0.339999 0.46 0 0 -0.00460997 -0.00211719 -0.0021554 -0.000293055 0 0 -0.0882159 0 0 
213 1 213 0.339999 0.5 0 0 -0.00490674 -0.00223826 -0.00228927 -0.000265667 0 0 -0.0936548 0 0 
214 1 214 0.339999 0.54 0 0 -0.00516982 -0.00234192 -0.00240678 -0.000230362 0 0 -0.0983814 0 0 
215 1 215 0.339999 0.58 0 0 -0.00539306 -0.00242887 -0.00250617 -0.000187319 0 0 -0.102239 0 0 
216 1 216 0.339999 0.62 0 0 -0.0055649 -0.00248846 -0.00258032 -0.000136377 0 0 -0.105102 0 0 
217 1 217 0.339999 0.66 0 0 -0.00568465 -0.00253205 -0.00263266 -7.88506e-05 0 0 -0.106821 0 0 
218 1 218 0.339999 0.7 0 0 -0.00573234 -0.00252849 -0.0026468 -1.44152e-05 0 0 -0.107343 0 0 
219 1 219 0.339999 0.74 0 0 -0.00572791 -0.00252736 -0.00264502 5.35435e-05 0 0 -0.106546 0 0 
220 1 220 0.339999 0.78 0 0 -0.00562265 -0.00242397 -0.00257816 0.000125654 0 0 -0.104534 0 0 
221 1 221 0.339999 0.82 0 0 -0.0055053 -0.00239735 -0.00253203 0.000197 0 0 -0.101411 0 0 
222 1 222 0.339999 0.86 0 0 -0.0052344 -0.00208769 -0.00234601 0.000256877 0 0 -0.0973863 0 0 
223 1 223 0.339999 0.9 0 0 -0.00511573 -0.00209468 -0.00231023 0.000329292 0 0 -0.0947236 0 0 
224 1 224 0.339999 0.94 0 0 -0.00474773 -0.00120711 -0.00190794 0.000267544 0 0 -0.0909469 0 0 
225 1 225 0.339999 0.98 0 0 -0.00506956 -0.0013395 -0.00205347 0.000428863 0 0 -0.105072 0 0 
226 1 226 0.38 0.0199999 0 0 -0.0010432 -0.00121101 -0.000722244 -0.000622584 0 0 -0.0133388 0 0 
227 1 227 0.38 0.0599999 0 0 -0.00188278 -0.00125074 -0.00100398 -0.000588617 0 0 -0.0340257 0 0 
228 1 228 0.379999 0.0999998 0 0 -0.00256199 -0.00137464 -0.00126129 -0.000555752 0 0 -0.048258 0 0 
229 1 229 0.379999 0.14 0 0 -0.00319713 -0.00161093 -0.0015405 -0.000561981 0 0 -0.0612048 0 0 
230 1 230 0.379999 0.18 0 0 -0.00380753 -0.00185738 -0.00181504 -0.000570687 0 0 -0.0732579 0 0 
231 1 231 0.379999 0.22 0 0 -0.00442082 -0.00212921 -0.00209864 -0.000582665 0 0 -0.0852002 0 0 
232 1 232 0.379999 0.26 0 0 -0.00503348 -0.00239872 -0.0023813 -0.000591625 0 0 -0.0971138 0 0 
233 1 233 0.379999 0.3 0 0 -0.00564715 -0.00266972 -0.00266475 -0.000595348 0 0 -0.10902 0 0 
234 1 234 0.379999 0.34 0 0 -0.00625337 -0.00293243 -0.00294317 -0.00059151 0 0 -0.120825 0 0 
235 1 235 0.379998 0.38 0 0 -0.00684445 -0.00318475 -0.0032134 -0.000578163 0 0 -0.132384 0 0 
236 1 236 0.379998 0.42 0 0 -0.00740927 -0.00342103 -0.00347009 -0.000553777 0 0 -0.143518 0 0 
237 1 237 0.379998 0.46 0 0 -0.00793563 -0.00363594 -0.0037076 -0.00051698 0 0 -0.154019 0 0 
238 1 238 0.379998 0.5 0 0 -0.00841146 -0.00382604 -0.00392097 -0.000467023 0 0 -0.163654 0 0 
239 1 239 0.379998 0.54 0 0 -0.00882175 -0.00398231 -0.00410251 -0.000403201 0 0 -0.172186 0 0 
240 1 240 0.379998 0.58 0 0 -0.00915744 -0.00410772 -0.00425026 -0.000325985 0 0 -0.179347 0 0 
241 1 241 0.379998 0.62 0 0 -0.00939925 -0.00418233 -0.00435164 -0.000235115 0 0 -0.184913 0 0 
242 1 242 0.379998 0.66 0 0 -0.00955069 -0.0042313 -0.00441586 -0.000133102 0 0 -0.188602 0 0 
243 1 243 0.379998 0.7 0 0 -0.00957701 -0.00419472 -0.00441257 -1.93003e-05 0 0 -0.190293 0 0 
244 1 244 0.379998 0.74 0 0 -0.00952206 -0.00417227 -0.00438777 0.000100213 0 0 -0.189736 0 0 
245 1 245 0.379998 0.78 0 0 -0.00929551 -0.00396325 -0.0042482 0.000226247 0 0 -0.187084 0 0 
246 1 246 0.379998 0.82 0 0 -0.00906863 -0.00391034 -0.00415856 0.000351158 0 0 -0.182548 0 0 
247 1 247 0.379998 0.86 0 0 -0.00857726 -0.00334214 -0.00381905 0.000452146 0 0 -0.176372 0 0 
248 1 248 0.379998 0.9 0 0 -0.00838145 -0.00336283 -0.00376294 0.000579316 0 0 -0.172838 0 0 
249 1 249 0.379998 0.940001 0 0 -0.007747 -0.00180044 -0.00305904 0.000454893 0 0 -0.166945 0 0 
250 1 250 0.379998 0.980001 0 0 -0.00832476 -0.00203562 -0.00331952 0.000729956 0 0 -0.192476 0 0 
251 1 251 0.42 0.0199999 0 0 -0.00183418 -0.00215803 -0.0012791 -0.00111288 0 0 -0.0231468 0 0 
252 1 252 0.419999 0.0599997 0 0 -0.00327225 -0.00220201 -0.00175396 -0.00104318 0 0 -0.0589484 0 0 
253 1 253 0.419999 0.0999997 0 0 -0.00442989 -0.00239576 -0.00218695 -0.00097945 0 0 -0.0834323 0 0 
254 1 254 0.419999 0.14 0 0 -0.00550587 -0.00278495 -0.00265641 -0.000986797 0 0 -0.105535 0 0 
255 1 255 0.419999 0.18 0 0 -0.00653322 -0.00319194 -0.00311599 -0.000998817 0 0 -0.125908 0 0 
256 1 256 0.419998 0.22 0 0 -0.00756128 -0.00364347 -0.00359006 -0.00101725 0 0 -0.145972 0 0 
257 1 257 0.419998 0.26 0 0 -0.00858444 -0.00408972 -0.00406089 -0.00103042 0 0 -0.165867 0 0 
258 1 258 0.419998 0.3 0 0 -0.00960749 -0.00453846 -0.00453248 -0.0010346 0 0 -0.185635 0 0 
259 1 259 0.419998 0.34 0 0 -0.0106174 -0.00497277 -0.00499525 -0.00102575 0 0 -0.205104 0 0 
260 1 260 0.419997 0.38 0 0 -0.0116038 -0.00539052 -0.00544516 -0.00100062 0 0 -0.224008 0 0 
261 1 261 0.419997 0.42 0 0 -0.0125506 -0.00578333 -0.00587439 -0.000956719 0 0 -0.242015 0 0 
262 1 262 0.419997 0.46 0 0 -0.0134399 -0.00614341 -0.00627476 -0.00089176 0 0 -0.258751 0 0 
263 1 263 0.419997 0.5 0 0 -0.0142548 -0.00646708 -0.00663956 -0.000804561 0 0 -0.273807 0 0 
264 1 264 0.419997 0.54 0 0 -0.014971 -0.0067386 -0.00695606 -0.000693863 0 0 -0.286792 0 0 
265 1 265 0.419996 0.58 0 0 -0.0155755 -0.00696624 -0.00722272 -0.00056055 0 0 -0.29728 0 0 
266 1 266 0.419996 0.62 0 0 -0.0160329 -0.00711105 -0.00741567 -0.000403961 0 0 -0.30496 0 0 
267 1 267 0.419996 0.66 0 0 -0.0163511 -0.00722322 -0.0075536 -0.000228563 0 0 -0.309435 0 0 
268 1 268 0.419996 0.7 0 0 -0.0164618 -0.00718507 -0.00757682 -3.30098e-05 0 0 -0.310623 0 0 
269 1 269 0.419996 0.74 0 0 -0.016447 -0.00718752 -0.00757287 0.000172117 0 0 -0.308217 0 0 
270 1 270 0.419996 0.78 0 0 -0.0161332 -0.00684951 -0.00736403 0.000387383 0 0 -0.302577 0 0 
271 1 271 0.419996 0.82 0 0 -0.015836 -0.00680859 -0.00725568 0.000601706 0 0 -0.294265 0 0 
272 1 272 0.419996 0.86 0 0 -0.0150688 -0.00583914 -0.0066992 0.000768019 0 0 -0.28353 0 0 
273 1 273 0.419997 0.900001 0 0 -0.0148308 -0.00592373 -0.00665002 0.000987965 0 0 -0.278318 0 0 
274 1 274 0.419996 0.940001 0 0 -0.0138135 -0.00326502 -0.00547214 0.000755438 0 0 -0.268782 0 0 
275 1 275 0.419996 0.980002 0 0 -0.0148478 -0.0036836 -0.00593766 0.00122631 0 0 -0.313234 0 0 
276 1 276 0.46 0.0199998 0 0 -0.00314553 -0.00375401 -0.00221063 -0.00194275 0 0 -0.0391257 0 0 
277 1 277 0.459999 0.0599995 0 0 -0.00554257 -0.0037829 -0.00298792 -0.00180473 0 0 -0.0994918 0 0 
278 1 278 0.459998 0.0999994 0 0 -0.00746201 -0.00407138 -0.00369537 -0.00168416 0 0 -0.140539 0 0 
279 1 279 0.459998 0.139999 0 0 -0.00923352 -0.00469046 -0.00446135 -0.00168956 0 0 -0.177285 0 0 
280 1 280 0.459997 0.179999 0 0 -0.0109117 -0.00533992 -0.00520718 -0.00170362 0 0 -0.210778 0 0 
281 1 281 0.459997 0.219999 0 0 -0.0125816 -0.00606504 -0.00597461 -0.00172994 0 0 -0.243552 0 0 
282 1 282 0.459997 0.259999 0 0 -0.0142334 -0.00677769 -0.00673223 -0.00174727 0 0 -0.275866 0 0 
283 1 283 0.459996 0.299999 0 0 -0.0158757 -0.00749181 -0.00748731 -0.00174946 0 0 -0.307864 0 0 
284 1 284 0.459996 0.339999 0 0 -0.0174853 -0.00817667 -0.00822255 -0.00172955 0 0 -0.339316 0 0 
285 1 285 0.459995 0.379999 0 0 -0.0190436 -0.00882854 -0.0089308 -0.00168218 0 0 -0.36986 0 0 
286 1 286 0.459995 0.419999 0 0 -0.0205221 -0.00943243 -0.00959806 -0.00160332 0 0 -0.399038 0 0 
287 1 287 0.459995 0.459999 0 0 -0.0218891 -0.00997404 -0.0102097 -0.00148928 0 0 -0.426338 0 0 
288 1 288 0.459994 0.499999 0 0 -0.0231159 -0.0104484 -0.0107548 -0.00133841 0 0 -0.451178 0 0 
289 1 289 0.459994 0.539999 0 0 -0.024162 -0.0108269 -0.0112113 -0.00114879 0 0 -0.472993 0 0 
290 1 290 0.459994 0.58 0 0 -0.0250115 -0.0111302 -0.0115808 -0.000922401 0 0 -0.491116 0 0 
291 1 291 0.459994 0.62 0 0 -0.0256069 -0.0112868 -0.0118217 -0.000658151 0 0 -0.505044 0 0 
292 1 292 0.459993 0.66 0 0 -0.0259779 -0.0114003 -0.011977 -0.000364131 0 0 -0.514058 0 0 
293 1 293 0.459993 0.7 0 0 -0.026008 -0.0112518 -0.0119391 -3.7885e-05 0 0 -0.517965 0 0 
294 1 294 0.459993 0.74 0 0 -0.0258654 -0.0112074 -0.0118791 0.000302775 0 0 -0.516176 0 0 
295 1 295 0.459994 0.78 0 0 -0.02524 -0.0105672 -0.0114736 0.000657181 0 0 -0.509182 0 0 
296 1 296 0.459994 0.820001 0 0 -0.0247113 -0.0104953 -0.0112811 0.00101154 0 0 -0.498093 0 0 
297 1 297 0.459994 0.860001 0 0 -0.0234119 -0.00881242 -0.0103254 0.00127191 0 0 -0.482849 0 0 
298 1 298 0.459994 0.900001 0 0 -0.0230799 -0.00898859 -0.0102755 0.00163788 0 0 -0.477794 0 0 
299 1 299 0.459994 0.940002 0 0 -0.0214434 -0.00456837 -0.00833463 0.00120189 0 0 -0.464216 0 0 
300 1 300 0.459993 0.980003 0 0 -0.023207 -0.00527515 -0.00912625 0.00196389 0 0 -0.540146 0 0 
301 1 301 0.499999 0.0199997 0 0 -0.00525788 -0.00637005 -0.00372566 -0.00330973 0 0 -0.0643256 0 0 
302 1 302 0.499998 0.0599992 0 0 -0.00914339 -0.00633779 -0.00496031 -0.00304565 0 0 -0.163341 0 0 
303 1 303 0.499997 0.099999 0 0 -0.0122381 -0.00674344 -0.00608193 -0.00282336 0 0 -0.230295 0 0 
304 1 304 0.499996 0.139999 0 0 -0.0150719 -0.00769262 -0.00729411 -0.00281844 0 0 -0.28966 0 0 
305 1 305 0.499996 0.179999 0 0 -0.0177326 -0.00869309 -0.00846728 -0.00282923 0 0 -0.343064 0 0 
306 1 306 0.499995 0.219999 0 0 -0.0203641 -0.00981953 -0.00967147 -0.00286301 0 0 -0.394894 0 0 
307 1 307 0.499994 0.259999 0 0 -0.0229511 -0.010921 -0.0108535 -0.002882 0 0 -0.445586 0 0 
308 1 308 0.499994 0.299999 0 0 -0.0255133 -0.0120239 -0.012028 -0.00287659 0 0 -0.495441 0 0 
309 1 309 0.499993 0.339999 0 0 -0.0280171 -0.0130766 -0.0131677 -0.00283522 0 0 -0.544073 0 0 
310 1 310 0.499992 0.379999 0 0 -0.0304394 -0.0140775 -0.0142647 -0.00274958 0 0 -0.590878 0 0 
311 1 311 0.499992 0.419999 0 0 -0.0327425 -0.0150059 -0.0153003 -0.00261354 0 0 -0.635073 0 0 
312 1 312 0.499991 0.459999 0 0 -0.0348845 -0.0158421 -0.0162548 -0.00242145 0 0 -0.675789 0 0 
313 1 313 0.499991 0.499999 0 0 -0.0368303 -0.0165859 -0.0171168 -0.00217111 0 0 -0.712065 0 0 