ITEM: TIMESTEP
0
ITEM: NUMBER OF ATOMS
7127
ITEM: BOX BOUNDS sm sm sm
0 4
0 2
0 0
ITEM: ATOMS id type tag x y z vx 
0 1 0 0 0 0 0 
1 1 1 0 0.04 0 0 
2 1 2 0 0.08 0 0 
3 1 3 0 0.12 0 0 
4 1 4 0 0.16 0 0 
5 1 5 0 0.2 0 0 
6 1 6 0 0.24 0 0 
7 1 7 0 0.28 0 0 
8 1 8 0 0.32 0 0 
9 1 9 0 0.36 0 0 
10 1 10 0 0.4 0 0 
11 1 11 0 0.44 0 0 
12 1 12 0 0.48 0 0 
13 1 13 0 0.52 0 0 
14 1 14 0 0.56 0 0 
15 1 15 0 0.6 0 0 
16 1 16 0 0.64 0 0 
17 1 17 0 0.68 0 0 
18 1 18 0 0.72 0 0 
19 1 19 0 0.76 0 0 
20 1 20 0 0.8 0 0 
21 1 21 0 0.84 0 0 
22 1 22 0 0.88 0 0 
23 1 23 0 0.92 0 0 
24 1 24 0 0.96 0 0 
25 1 25 0 1 0 0 
26 1 26 0.04 0 0 0 
27 1 27 0.040001 0.0400005 0 -0.0394051 
28 1 28 0.040001 0.0800002 0 -0.00877605 
29 1 29 0.0399997 0.12 0 0.29059 
30 1 30 0.0400003 0.160002 0 0.484051 
31 1 31 0.0399987 0.200006 0 0.500346 
32 1 32 0.0399969 0.240011 0 0.480325 
33 1 33 0.0399943 0.280016 0 0.445057 
34 1 34 0.0399925 0.32002 0 0.288246 
35 1 35 0.0399912 0.360021 0 0.133629 
36 1 36 0.0399883 0.400021 0 0.0507584 
37 1 37 0.0399871 0.440018 0 -0.00637765 
38 1 38 0.0399843 0.480017 0 0.00617834 
39 1 39 0.0399817 0.520016 0 0.0408566 
40 1 40 0.0399774 0.560017 0 0.0392383 
41 1 41 0.0399769 0.600018 0 0.18528 
42 1 42 0.0399718 0.640022 0 0.290716 
43 1 43 0.0399729 0.680023 0 0.362235 
44 1 44 0.0399684 0.720026 0 0.392146 
45 1 45 0.0399695 0.760026 0 0.299476 
46 1 46 0.0399651 0.800029 0 0.239929 
47 1 47 0.0399645 0.84003 0 0.0680224 
48 1 48 0.039962 0.880035 0 0.0477745 
49 1 49 0.0399565 0.920043 0 0.0934506 
50 1 50 0.0399539 0.960053 0 0.115382 
51 1 51 0.0399035 1.0001 0 0.173258 
52 1 52 0.08 0 0 0 
53 1 53 0.0800003 0.0400021 0 0.02324 
54 1 54 0.0800008 0.0800042 0 0.185181 
55 1 55 0.0799997 0.120008 0 0.513367 
56 1 56 0.0799983 0.160012 0 0.655989 
57 1 57 0.0799929 0.200018 0 0.714712 
58 1 58 0.0799901 0.240025 0 0.694792 
59 1 59 0.079985 0.280032 0 0.610903 
60 1 60 0.0799838 0.320038 0 0.402163 
61 1 61 0.0799805 0.36004 0 0.26317 
62 1 62 0.0799786 0.40004 0 0.214847 
63 1 63 0.0799739 0.440039 0 0.207578 
64 1 64 0.0799697 0.480038 0 0.231507 
65 1 65 0.079961 0.520038 0 0.247708 
66 1 66 0.0799552 0.560039 0 0.176764 
67 1 67 0.0799496 0.600043 0 0.294236 
68 1 68 0.0799444 0.640046 0 0.406089 
69 1 69 0.0799418 0.680051 0 0.560309 
70 1 70 0.079938 0.720051 0 0.682767 
71 1 71 0.0799336 0.760056 0 0.515502 
72 1 72 0.0799315 0.800057 0 0.456681 
73 1 73 0.0799244 0.840066 0 0.324662 
74 1 74 0.0799189 0.880072 0 0.301916 
75 1 75 0.0799103 0.920088 0 0.31644 
76 1 76 0.0798857 0.960116 0 0.224267 
77 1 77 0.0798562 1.00013 0 0.20283 
78 1 78 0.12 0 0 0 
79 1 79 0.119999 0.0400038 0 0.0419581 
80 1 80 0.12 0.0800105 0 0.262593 
81 1 81 0.119997 0.120016 0 0.586046 
82 1 82 0.119993 0.160023 0 0.746651 
83 1 83 0.119985 0.200031 0 0.889172 
84 1 84 0.119981 0.24004 0 0.82492 
85 1 85 0.119975 0.280046 0 0.656805 
86 1 86 0.119973 0.320053 0 0.419508 
87 1 87 0.11997 0.360057 0 0.310883 
88 1 88 0.119967 0.40006 0 0.294084 
89 1 89 0.119961 0.44006 0 0.403958 
90 1 90 0.119953 0.480061 0 0.479481 
91 1 91 0.119943 0.520061 0 0.492731 
92 1 92 0.119931 0.560065 0 0.41874 
93 1 93 0.119923 0.600069 0 0.490699 
94 1 94 0.119914 0.640074 0 0.597911 
95 1 95 0.119914 0.680078 0 0.771046 
96 1 96 0.119908 0.720083 0 0.926984 
97 1 97 0.119904 0.760086 0 0.78663 
98 1 98 0.119895 0.800092 0 0.721806 
99 1 99 0.119886 0.840099 0 0.595479 
100 1 100 0.119875 0.880112 0 0.549244 
101 1 101 0.119856 0.92013 0 0.519949 
102 1 102 0.119834 0.960148 0 0.362466 
103 1 103 0.119806 1.00018 0 0.264983 
104 1 104 0.16 0 0 0 
105 1 105 0.159997 0.040007 0 -0.00402756 
106 1 106 0.159996 0.0800143 0 0.242557 
107 1 107 0.159992 0.120022 0 0.612694 
108 1 108 0.159986 0.160032 0 0.832621 
109 1 109 0.159976 0.200041 0 0.969773 
110 1 110 0.15997 0.240051 0 0.861414 
111 1 111 0.159963 0.28006 0 0.706141 
112 1 112 0.159959 0.320068 0 0.470575 
113 1 113 0.159956 0.360074 0 0.365555 
114 1 114 0.159951 0.400078 0 0.385368 
115 1 115 0.159946 0.440082 0 0.592541 
116 1 116 0.159934 0.480085 0 0.706789 
117 1 117 0.159921 0.520088 0 0.713973 
118 1 118 0.159906 0.560092 0 0.664421 
119 1 119 0.159896 0.600097 0 0.711211 
120 1 120 0.159886 0.640101 0 0.867344 
121 1 121 0.159881 0.680107 0 1.06907 
122 1 122 0.159875 0.720112 0 1.16277 
123 1 123 0.159868 0.760118 0 1.07305 
124 1 124 0.159858 0.800124 0 1.02258 
125 1 125 0.159844 0.840134 0 0.800786 
126 1 126 0.159828 0.880146 0 0.638865 
127 1 127 0.159808 0.920163 0 0.593816 
128 1 128 0.159782 0.960183 0 0.500635 
129 1 129 0.159752 1.00021 0 0.406318 
130 1 130 0.2 0 0 0 
131 1 131 0.199996 0.0400079 0 0.0334207 
132 1 132 0.199992 0.0800172 0 0.331965 
133 1 133 0.199986 0.120027 0 0.648536 
134 1 134 0.199978 0.160038 0 0.82773 
135 1 135 0.199965 0.20005 0 0.907651 
136 1 136 0.199957 0.24006 0 0.805554 
137 1 137 0.199948 0.280072 0 0.704727 
138 1 138 0.199944 0.320081 0 0.524474 
139 1 139 0.19994 0.360089 0 0.495189 
140 1 140 0.199935 0.400096 0 0.592776 
141 1 141 0.199927 0.440102 0 0.863556 
142 1 142 0.199914 0.480107 0 0.983035 
143 1 143 0.199899 0.520112 0 1.01984 
144 1 144 0.199881 0.560118 0 0.972498 
145 1 145 0.199868 0.600123 0 0.922468 
146 1 146 0.199858 0.64013 0 1.04945 
147 1 147 0.199854 0.680136 0 1.25015 
148 1 148 0.199846 0.720144 0 1.32013 
149 1 149 0.199838 0.760151 0 1.26545 
150 1 150 0.199823 0.80016 0 1.21834 
151 1 151 0.199805 0.840168 0 1.0423 
152 1 152 0.199783 0.88018 0 0.842935 
153 1 153 0.19976 0.920195 0 0.733703 
154 1 154 0.199729 0.960215 0 0.662578 
155 1 155 0.1997 1.00024 0 0.551986 
156 1 156 0.24 0 0 0 
157 1 157 0.239994 0.0400095 0 0.0821621 
158 1 158 0.239988 0.0800204 0 0.418233 
159 1 159 0.239979 0.120033 0 0.662652 
160 1 160 0.239968 0.160046 0 0.831953 
161 1 161 0.239953 0.200059 0 0.910678 
162 1 162 0.239944 0.240071 0 0.842249 
163 1 163 0.239933 0.280082 0 0.771887 
164 1 164 0.239927 0.320093 0 0.64962 
165 1 165 0.239921 0.360102 0 0.704935 
166 1 166 0.239914 0.400112 0 0.803178 
167 1 167 0.239905 0.440119 0 1.0872 
168 1 168 0.239889 0.480128 0 1.20885 
169 1 169 0.239873 0.520134 0 1.24949 
170 1 170 0.239854 0.560142 0 1.20202 
171 1 171 0.239841 0.600148 0 1.10196 
172 1 172 0.239829 0.640155 0 1.19077 
173 1 173 0.23982 0.680163 0 1.3331 
174 1 174 0.23981 0.720171 0 1.42726 
175 1 175 0.2398 0.760181 0 1.48777 
176 1 176 0.239782 0.80019 0 1.4071 
177 1 177 0.239764 0.840201 0 1.24549 
178 1 178 0.239738 0.880213 0 1.05854 
179 1 179 0.239711 0.920228 0 0.915364 
180 1 180 0.239676 0.960248 0 0.855915 
181 1 181 0.239642 1.00027 0 0.715497 
182 1 182 0.28 0 0 0 
183 1 183 0.279992 0.0400113 0 0.181076 
184 1 184 0.279983 0.080024 0 0.535952 
185 1 185 0.27997 0.120039 0 0.748992 
186 1 186 0.279958 0.160053 0 0.91382 
187 1 187 0.279941 0.200067 0 0.91333 
188 1 188 0.27993 0.24008 0 0.853286 
189 1 189 0.279917 0.280092 0 0.876554 
190 1 190 0.279909 0.320103 0 0.832314 
191 1 191 0.2799 0.360114 0 0.969682 
192 1 192 0.27989 0.400124 0 1.05744 
193 1 193 0.279879 0.440134 0 1.30568 
194 1 194 0.279863 0.480144 0 1.43755 
195 1 195 0.279846 0.520153 0 1.44653 
196 1 196 0.279827 0.56016 0 1.33984 
197 1 197 0.279811 0.600169 0 1.20249 
198 1 198 0.2798 0.640177 0 1.21586 
199 1 199 0.279792 0.680188 0 1.29979 
200 1 200 0.279781 0.720198 0 1.43238 
201 1 201 0.279768 0.76021 0 1.58837 
202 1 202 0.279746 0.800221 0 1.58402 
203 1 203 0.279724 0.840233 0 1.52817 
204 1 204 0.279693 0.880247 0 1.33458 
205 1 205 0.279663 0.920264 0 1.13536 
206 1 206 0.279623 0.960285 0 1.06426 
207 1 207 0.279587 1.00031 0 0.879809 
208 1 208 0.32 0 0 0 
209 1 209 0.319988 0.0400127 0 0.27162 
210 1 210 0.319975 0.0800269 0 0.644408 
211 1 211 0.31996 0.120043 0 0.873639 
212 1 212 0.319945 0.16006 0 1.00795 
213 1 213 0.319928 0.200075 0 0.932573 
214 1 214 0.319915 0.240088 0 0.916399 
215 1 215 0.319901 0.280101 0 1.00863 
216 1 216 0.31989 0.320113 0 1.01505 
217 1 217 0.319878 0.360125 0 1.21281 
218 1 218 0.319865 0.400137 0 1.30846 
219 1 219 0.319851 0.440149 0 1.47139 
220 1 220 0.319833 0.48016 0 1.56163 
221 1 221 0.319814 0.52017 0 1.58514 
222 1 222 0.319795 0.560179 0 1.4306 
223 1 223 0.319782 0.600187 0 1.2508 
224 1 224 0.319766 0.640196 0 1.18631 
225 1 225 0.319753 0.680206 0 1.22423 
226 1 226 0.319739 0.72022 0 1.43264 
227 1 227 0.319724 0.760234 0 1.66885 
228 1 228 0.319703 0.800249 0 1.74672 
229 1 229 0.31968 0.840265 0 1.85081 
230 1 230 0.319644 0.880282 0 1.64719 
231 1 231 0.319612 0.920303 0 1.3486 
232 1 232 0.31957 0.960324 0 1.26005 
233 1 233 0.31953 1.00035 0 1.04632 
234 1 234 0.36 0 0 0 
235 1 235 0.359984 0.040013 0 0.267249 
236 1 236 0.359966 0.0800287 0 0.670192 
237 1 237 0.359947 0.120047 0 0.982099 
238 1 238 0.359931 0.160064 0 1.12443 
239 1 239 0.359913 0.20008 0 1.04876 
240 1 240 0.359899 0.240094 0 1.04488 
241 1 241 0.359885 0.280108 0 1.09633 
242 1 242 0.359871 0.32012 0 1.16956 
243 1 243 0.359855 0.360134 0 1.41522 
244 1 244 0.35984 0.400147 0 1.5 
245 1 245 0.359822 0.44016 0 1.6125 
246 1 246 0.359803 0.480172 0 1.65585 
247 1 247 0.359785 0.520183 0 1.68666 
248 1 248 0.359766 0.560193 0 1.54708 
249 1 249 0.359748 0.600203 0 1.35111 
250 1 250 0.359734 0.640214 0 1.2166 
251 1 251 0.359721 0.680228 0 1.23289 
252 1 252 0.359707 0.720243 0 1.47392 
253 1 253 0.359687 0.760261 0 1.824 
254 1 254 0.359661 0.800279 0 2.01556 
255 1 255 0.359635 0.840299 0 2.18259 
256 1 256 0.359596 0.880321 0 1.95491 
257 1 257 0.359562 0.920342 0 1.58283 
258 1 258 0.359518 0.960366 0 1.47239 
259 1 259 0.359479 1.00039 0 1.24891 
260 1 260 0.4 0 0 0 
261 1 261 0.399977 0.0400132 0 0.25598 
262 1 262 0.399955 0.0800295 0 0.69533 
263 1 263 0.399934 0.120047 0 1.07117 
264 1 264 0.399915 0.160064 0 1.17568 
265 1 265 0.399897 0.200081 0 1.05602 
266 1 266 0.399883 0.240096 0 1.05547 
267 1 267 0.399867 0.280111 0 1.13414 
268 1 268 0.399851 0.320125 0 1.32003 
269 1 269 0.399832 0.36014 0 1.56678 
270 1 270 0.399813 0.400155 0 1.65254 
271 1 271 0.399791 0.44017 0 1.78296 
272 1 272 0.399771 0.480185 0 1.81312 
273 1 273 0.39975 0.520199 0 1.82865 
274 1 274 0.399732 0.560209 0 1.69982 
275 1 275 0.399715 0.600221 0 1.54014 
276 1 276 0.399695 0.640232 0 1.3583 
277 1 277 0.399676 0.680247 0 1.36872 
278 1 278 0.399655 0.720265 0 1.58621 
279 1 279 0.399636 0.760286 0 1.96794 
280 1 280 0.39961 0.800308 0 2.25567 
281 1 281 0.399582 0.840332 0 2.40033 
282 1 282 0.399544 0.880356 0 2.13843 
283 1 283 0.39951 0.920382 0 1.75285 
284 1 284 0.399467 0.960405 0 1.62371 
285 1 285 0.399428 1.00043 0 1.3998 
286 1 286 0.44 0 0 0 
287 1 287 0.439972 0.0400128 0 0.223984 
288 1 288 0.439944 0.0800283 0 0.652556 
289 1 289 0.43992 0.120045 0 1.04866 
290 1 290 0.439899 0.160062 0 1.15596 
291 1 291 0.439881 0.200078 0 1.03701 
292 1 292 0.439865 0.240093 0 1.03671 
293 1 293 0.439848 0.280109 0 1.14247 
294 1 294 0.43983 0.320124 0 1.38423 
295 1 295 0.439807 0.360142 0 1.6294 
296 1 296 0.439786 0.400159 0 1.7849 
297 1 297 0.439761 0.440178 0 1.92289 
298 1 298 0.439739 0.480194 0 1.93067 
299 1 299 0.439719 0.520211 0 1.96918 
300 1 300 0.439698 0.560225 0 1.8486 
301 1 301 0.439677 0.60024 0 1.71018 
302 1 302 0.439658 0.640256 0 1.53432 
303 1 303 0.43964 0.680274 0 1.6019 
304 1 304 0.439618 0.720294 0 1.82903 
305 1 305 0.439594 0.760317 0 2.237 
306 1 306 0.439562 0.800341 0 2.56904 
307 1 307 0.439533 0.840368 0 2.6655 
308 1 308 0.439493 0.880393 0 2.41605 
309 1 309 0.439459 0.92042 0 1.99582 
310 1 310 0.439419 0.960444 0 1.76627 
311 1 311 0.439385 1.00047 0 1.52386 
312 1 312 0.48 0 0 0 
313 1 313 0.479965 0.0400114 0 0.167309 
314 1 314 0.479934 0.080025 0 0.539979 
315 1 315 0.479908 0.12004 0 0.898611 
316 1 316 0.479883 0.160055 0 1.00771 
317 1 317 0.479865 0.200072 0 0.953317 
318 1 318 0.479846 0.240087 0 0.963796 
319 1 319 0.479829 0.280105 0 1.07776 
320 1 320 0.479808 0.320123 0 1.38556 
321 1 321 0.479782 0.360143 0 1.65618 
322 1 322 0.479757 0.400164 0 1.85847 
323 1 323 0.479729 0.440186 0 1.95077 
324 1 324 0.479705 0.480206 0 1.94685 
325 1 325 0.479681 0.520226 0 2.02441 
326 1 326 0.47966 0.560244 0 1.95 
327 1 327 0.479638 0.600262 0 1.89485 
328 1 328 0.479614 0.640279 0 1.77019 
329 1 329 0.479588 0.680299 0 1.90408 
330 1 330 0.479559 0.72032 0 2.11006 
331 1 331 0.479537 0.760346 0 2.50872 
332 1 332 0.479505 0.800372 0 2.8208 
333 1 333 0.479476 0.840399 0 2.81405 
334 1 334 0.479439 0.880426 0 2.60159 
335 1 335 0.479406 0.920453 0 2.18244 
336 1 336 0.479371 0.960476 0 1.87479 
337 1 337 0.479342 1.0005 0 1.63639 
338 1 338 0.52 0 0 0 
339 1 339 0.519962 0.0400097 0 0.18612 
340 1 340 0.519926 0.0800215 0 0.476281 
341 1 341 0.519897 0.120034 0 0.735556 
342 1 342 0.51987 0.160048 0 0.786274 
343 1 343 0.519849 0.200063 0 0.767578 
344 1 344 0.519827 0.240079 0 0.815736 
345 1 345 0.519807 0.280098 0 0.957271 
346 1 346 0.519783 0.320119 0 1.32245 
347 1 347 0.519754 0.360142 0 1.58426 
348 1 348 0.519727 0.400166 0 1.80998 
349 1 349 0.519695 0.440192 0 1.87531 
350 1 350 0.51967 0.480215 0 1.84341 
351 1 351 0.519644 0.520238 0 1.8985 
352 1 352 0.519621 0.56026 0 1.82456 
353 1 353 0.519594 0.600283 0 1.89313 
354 1 354 0.51957 0.640305 0 1.90542 
355 1 355 0.519549 0.680328 0 2.15174 
356 1 356 0.51952 0.720352 0 2.39206 
357 1 357 0.519492 0.760377 0 2.766 
358 1 358 0.519456 0.800403 0 3.0419 
359 1 359 0.519424 0.84043 0 2.9984 
360 1 360 0.519388 0.880456 0 2.82499 
361 1 361 0.519355 0.920483 0 2.3832 
362 1 362 0.519325 0.960505 0 1.99059 
363 1 363 0.519303 1.00053 0 1.74709 
364 1 364 0.56 0 0 0 
365 1 365 0.559957 0.040008 0 0.217869 
366 1 366 0.55992 0.0800177 0 0.359986 
367 1 367 0.559888 0.120028 0 0.479368 
368 1 368 0.559857 0.160041 0 0.514479 
369 1 369 0.559833 0.200055 0 0.563333 
370 1 370 0.559807 0.240072 0 0.667153 
371 1 371 0.559783 0.280094 0 0.81753 
372 1 372 0.559756 0.320117 0 1.16362 
373 1 373 0.559723 0.360144 0 1.38863 
374 1 374 0.559692 0.400171 0 1.6194 
375 1 375 0.559657 0.4402 0 1.67158 
376 1 376 0.559629 0.480226 0 1.65043 
377 1 377 0.559599 0.520253 0 1.70072 
378 1 378 0.559574 0.560277 0 1.6667 
379 1 379 0.559548 0.600302 0 1.87741 
380 1 380 0.55952 0.640325 0 2.01816 
381 1 381 0.55949 0.680349 0 2.34518 
382 1 382 0.559458 0.720374 0 2.64461 
383 1 383 0.559432 0.760401 0 3.02588 
384 1 384 0.559398 0.800428 0 3.27304 
385 1 385 0.559367 0.840455 0 3.20427 
386 1 386 0.559333 0.880481 0 3.02728 
387 1 387 0.559303 0.920506 0 2.58836 
388 1 388 0.559278 0.960527 0 2.14905 
389 1 389 0.559261 1.00055 0 1.88329 
390 1 390 0.6 0 0 0 
391 1 391 0.599957 0.0400065 0 0.257119 
392 1 392 0.599915 0.0800149 0 0.254405 
393 1 393 0.59988 0.120024 0 0.213512 
394 1 394 0.599846 0.160035 0 0.220167 
395 1 395 0.599817 0.20005 0 0.330463 
396 1 396 0.599785 0.240068 0 0.464274 
397 1 397 0.599757 0.280091 0 0.621915 
398 1 398 0.599724 0.320116 0 0.969243 
399 1 399 0.599689 0.360146 0 1.1998 
400 1 400 0.599655 0.400174 0 1.45651 
401 1 401 0.599617 0.440204 0 1.48133 
402 1 402 0.599587 0.480232 0 1.44262 
403 1 403 0.599556 0.520261 0 1.47882 
404 1 404 0.599528 0.560288 0 1.49227 
405 1 405 0.599497 0.600317 0 1.80931 
406 1 406 0.599471 0.640344 0 2.08521 
407 1 407 0.599448 0.680372 0 2.54009 
408 1 408 0.599419 0.720398 0 2.89635 
409 1 409 0.599388 0.760425 0 3.20991 
410 1 410 0.59935 0.800451 0 3.41037 
411 1 411 0.599317 0.840478 0 3.37146 
412 1 412 0.599283 0.880503 0 3.19359 
413 1 413 0.599255 0.920527 0 2.80965 
414 1 414 0.599233 0.960547 0 2.36737 
415 1 415 0.59922 1.00057 0 2.05978 
416 1 416 0.64 0 0 0 
417 1 417 0.639953 0.0400057 0 0.288673 
418 1 418 0.639911 0.0800128 0 0.194422 
419 1 419 0.639873 0.120021 0 0.00716294 
420 1 420 0.639833 0.160032 0 -0.055203 
421 1 421 0.639799 0.200047 0 0.10425 
422 1 422 0.639761 0.240067 0 0.279833 
423 1 423 0.639727 0.280091 0 0.419006 
424 1 424 0.639689 0.320119 0 0.750807 
425 1 425 0.639651 0.36015 0 0.994354 
426 1 426 0.639612 0.400179 0 1.28783 
427 1 427 0.639573 0.440211 0 1.36103 
428 1 428 0.63954 0.48024 0 1.34568 
429 1 429 0.639504 0.52027 0 1.37846 
430 1 430 0.639475 0.560298 0 1.44657 
431 1 431 0.639446 0.600328 0 1.83237 
432 1 432 0.639416 0.640354 0 2.22145 
433 1 433 0.639386 0.680383 0 2.73505 
434 1 434 0.639355 0.72041 0 3.11277 
435 1 435 0.639327 0.760438 0 3.3966 
436 1 436 0.639294 0.800465 0 3.58151 
437 1 437 0.639261 0.840492 0 3.58124 
438 1 438 0.639229 0.880517 0 3.36864 
439 1 439 0.639206 0.920541 0 3.05896 
440 1 440 0.639186 0.960562 0 2.6367 
441 1 441 0.639174 1.00058 0 2.26837 
442 1 442 0.68 0 0 0 
443 1 443 0.679953 0.040005 0 0.199332 
444 1 444 0.679907 0.0800111 0 0.0136221 
445 1 445 0.679864 0.12002 0 -0.226949 
446 1 446 0.679821 0.160031 0 -0.280336 
447 1 447 0.679779 0.200047 0 -0.0737729 
448 1 448 0.679736 0.240067 0 0.150536 
449 1 449 0.679695 0.280093 0 0.302073 
450 1 450 0.679651 0.320121 0 0.613897 
451 1 451 0.67961 0.360152 0 0.862007 
452 1 452 0.67957 0.400181 0 1.18232 
453 1 453 0.679529 0.440212 0 1.35771 
454 1 454 0.679493 0.480241 0 1.40141 
455 1 455 0.679457 0.520272 0 1.39158 
456 1 456 0.679425 0.560301 0 1.49164 
457 1 457 0.679391 0.600333 0 1.90546 
458 1 458 0.679366 0.640363 0 2.35529 
459 1 459 0.679344 0.680393 0 2.88259 
460 1 460 0.679317 0.720421 0 3.28394 
461 1 461 0.679283 0.76045 0 3.56915 
462 1 462 0.679248 0.800476 0 3.75352 
463 1 463 0.679214 0.840504 0 3.82461 
464 1 464 0.679183 0.880529 0 3.60487 
465 1 465 0.67916 0.920553 0 3.37853 
466 1 466 0.67914 0.960576 0 2.96642 
467 1 467 0.67913 1.0006 0 2.52386 
468 1 468 0.72 0 0 0 
469 1 469 0.719949 0.0400039 0 0.126517 
470 1 470 0.719901 0.0800099 0 -0.114409 
471 1 471 0.719854 0.120019 0 -0.370456 
472 1 472 0.719805 0.160032 0 -0.379476 
473 1 473 0.719758 0.200049 0 -0.164376 
474 1 474 0.719708 0.24007 0 0.040203 
475 1 475 0.719661 0.280096 0 0.213014 
476 1 476 0.719614 0.320124 0 0.554443 
477 1 477 0.719569 0.360155 0 0.847444 
478 1 478 0.719525 0.400185 0 1.18104 
479 1 479 0.719483 0.440215 0 1.39832 
480 1 480 0.719444 0.480243 0 1.45372 
481 1 481 0.719403 0.520273 0 1.43288 
482 1 482 0.71937 0.560302 0 1.60651 
483 1 483 0.719339 0.600332 0 2.02487 
484 1 484 0.719311 0.640359 0 2.51749 
485 1 485 0.719279 0.680389 0 3.04849 
486 1 486 0.719251 0.720418 0 3.47516 
487 1 487 0.719222 0.760448 0 3.78146 
488 1 488 0.719192 0.800477 0 3.96453 
489 1 489 0.71916 0.840506 0 4.11671 
490 1 490 0.71913 0.880534 0 3.93133 
491 1 491 0.71911 0.92056 0 3.76998 
492 1 492 0.719089 0.960586 0 3.30647 
493 1 493 0.719079 1.00061 0 2.76995 
494 1 494 0.76 0 0 0 
495 1 495 0.759946 0.0400024 0 0.0157187 
496 1 496 0.759893 0.0800088 0 -0.221302 
497 1 497 0.759841 0.120019 0 -0.439294 
498 1 498 0.759789 0.160033 0 -0.404119 
499 1 499 0.759736 0.200051 0 -0.171586 
500 1 500 0.759681 0.240072 0 0.0555764 
501 1 501 0.759629 0.280098 0 0.226538 
502 1 502 0.759576 0.320125 0 0.494547 
503 1 503 0.75953 0.360153 0 0.787752 
504 1 504 0.759484 0.400181 0 1.14544 
505 1 505 0.75944 0.44021 0 1.3965 
506 1 506 0.759398 0.480236 0 1.45237 
507 1 507 0.759359 0.520265 0 1.44377 
508 1 508 0.759321 0.560293 0 1.66524 
509 1 509 0.759286 0.600324 0 2.02786 
510 1 510 0.759261 0.640354 0 2.59129 
511 1 511 0.759237 0.680386 0 3.1717 
512 1 512 0.759214 0.720415 0 3.62068 
513 1 513 0.759179 0.760446 0 3.96968 
514 1 514 0.759146 0.800476 0 4.1846 
515 1 515 0.759113 0.840507 0 4.42745 
516 1 516 0.759083 0.880536 0 4.2773 
517 1 517 0.759062 0.920565 0 4.13108 
518 1 518 0.759041 0.960592 0 3.65852 
519 1 519 0.759033 1.00062 0 3.11412 
520 1 520 0.8 0 0 0 
521 1 521 0.799939 0.0400015 0 -0.131655 
522 1 522 0.799884 0.0800072 0 -0.334888 
523 1 523 0.799828 0.120018 0 -0.442961 
524 1 524 0.79977 0.160032 0 -0.356631 
525 1 525 0.799713 0.200051 0 -0.158615 
526 1 526 0.799654 0.240073 0 0.0522902 
527 1 527 0.799597 0.280098 0 0.230796 
528 1 528 0.799542 0.320124 0 0.453857 
529 1 529 0.799493 0.36015 0 0.737295 
530 1 530 0.799443 0.400176 0 1.05848 
531 1 531 0.799399 0.440203 0 1.29729 
532 1 532 0.799353 0.480229 0 1.37706 
533 1 533 0.799308 0.520256 0 1.40399 
534 1 534 0.799269 0.560283 0 1.69987 
535 1 535 0.799236 0.600311 0 2.07993 
536 1 536 0.799206 0.640339 0 2.71465 
537 1 537 0.79917 0.68037 0 3.27907 
538 1 538 0.799143 0.720401 0 3.74011 
539 1 539 0.799113 0.760434 0 4.21374 
540 1 540 0.799085 0.800466 0 4.48718 
541 1 541 0.799054 0.840499 0 4.75419 
542 1 542 0.799026 0.88053 0 4.6325 
543 1 543 0.799006 0.920562 0 4.46765 
544 1 544 0.798986 0.960591 0 3.98981 
545 1 545 0.798979 1.00062 0 3.49394 
546 1 546 0.84 0 0 0 
547 1 547 0.839936 0.0400004 0 -0.124609 
548 1 548 0.839874 0.0800057 0 -0.286953 
549 1 549 0.839813 0.120016 0 -0.38329 
550 1 550 0.839752 0.160031 0 -0.320257 
551 1 551 0.83969 0.20005 0 -0.182458 
552 1 552 0.839629 0.24007 0 -0.0077987 
553 1 553 0.839569 0.280093 0 0.173928 
554 1 554 0.83951 0.320116 0 0.359365 
555 1 555 0.839459 0.360139 0 0.624383 
556 1 556 0.839408 0.400163 0 0.894691 
557 1 557 0.839362 0.440187 0 1.11179 
558 1 558 0.839312 0.480211 0 1.22877 
559 1 559 0.839268 0.520237 0 1.29685 
560 1 560 0.839224 0.560264 0 1.6737 
561 1 561 0.839184 0.600295 0 2.08524 
562 1 562 0.839155 0.640326 0 2.76105 
563 1 563 0.839127 0.680359 0 3.34536 
564 1 564 0.839102 0.720391 0 3.85701 
565 1 565 0.839065 0.760426 0 4.41806 
566 1 566 0.839033 0.800458 0 4.70917 
567 1 567 0.839002 0.840492 0 4.99625 
568 1 568 0.838974 0.880524 0 4.96064 
569 1 569 0.83895 0.920557 0 4.77476 
570 1 570 0.838933 0.960587 0 4.3187 
571 1 571 0.83893 1.00062 0 3.93567 
572 1 572 0.88 0 0 0 
573 1 573 0.879928 0.0399993 0 -0.167913 
574 1 574 0.879863 0.0800032 0 -0.302118 
575 1 575 0.879799 0.120013 0 -0.370739 
576 1 576 0.879734 0.160026 0 -0.316782 
577 1 577 0.879669 0.200044 0 -0.255026 
578 1 578 0.879605 0.240063 0 -0.163525 
579 1 579 0.879542 0.280083 0 -0.00376992 
580 1 580 0.879482 0.320103 0 0.150927 
581 1 581 0.879428 0.360124 0 0.40867 
582 1 582 0.879372 0.400146 0 0.64703 
583 1 583 0.879324 0.44017 0 0.857028 
584 1 584 0.87927 0.480193 0 1.05301 
585 1 585 0.87922 0.52022 0 1.20576 
586 1 586 0.879175 0.560248 0 1.68819 
587 1 587 0.879135 0.600277 0 2.15271 
588 1 588 0.879098 0.640306 0 2.82472 
589 1 589 0.879055 0.68034 0 3.41128 
590 1 590 0.879023 0.720374 0 3.93937 
591 1 591 0.878992 0.76041 0 4.51204 
592 1 592 0.878965 0.800444 0 4.80049 
593 1 593 0.878934 0.840479 0 5.07054 
594 1 594 0.878908 0.880512 0 5.09906 
595 1 595 0.878887 0.920545 0 4.9319 
596 1 596 0.878873 0.960575 0 4.5843 
597 1 597 0.878871 1.0006 0 4.36974 
598 1 598 0.92 0 0 0 
599 1 599 0.919927 0.0399985 0 -0.122898 
600 1 600 0.919856 0.0800012 0 -0.219913 
601 1 601 0.919785 0.120009 0 -0.307171 
602 1 602 0.919718 0.16002 0 -0.358206 
603 1 603 0.91965 0.200035 0 -0.428247 
604 1 604 0.919583 0.240051 0 -0.40924 
605 1 605 0.919518 0.280068 0 -0.237632 
606 1 606 0.919454 0.320085 0 -0.0842239 
607 1 607 0.919397 0.360102 0 0.163429 
608 1 608 0.91934 0.400121 0 0.407287 
609 1 609 0.919288 0.440143 0 0.659942 
610 1 610 0.919231 0.480167 0 0.963251 
611 1 611 0.919181 0.520195 0 1.21085 
612 1 612 0.91913 0.560224 0 1.76395 
613 1 613 0.91908 0.600257 0 2.23636 
614 1 614 0.919042 0.640292 0 2.8381 
615 1 615 0.919007 0.680328 0 3.41128 
616 1 616 0.918976 0.720364 0 3.94443 
617 1 617 0.918939 0.7604 0 4.51637 
618 1 618 0.918907 0.800434 0 4.86898 
619 1 619 0.918877 0.840468 0 5.12693 
620 1 620 0.918851 0.8805 0 5.16994 
621 1 621 0.918826 0.920533 0 5.06611 
622 1 622 0.918815 0.960564 0 4.90652 
623 1 623 0.918818 1.00059 0 4.8809 
624 1 624 0.96 0 0 0 
625 1 625 0.959921 0.0399983 0 0.0277655 
626 1 626 0.959848 0.0799985 0 -0.0500296 
627 1 627 0.959774 0.120003 0 -0.222556 
628 1 628 0.959702 0.160012 0 -0.405204 
629 1 629 0.959631 0.200025 0 -0.5844 
630 1 630 0.959562 0.240038 0 -0.644338 
631 1 631 0.959494 0.280051 0 -0.504475 
632 1 632 0.959428 0.320066 0 -0.343801 
633 1 633 0.959367 0.360082 0 -0.060839 
634 1 634 0.959304 0.4001 0 0.21898 
635 1 635 0.959248 0.440121 0 0.486218 
636 1 636 0.959187 0.480145 0 0.879338 
637 1 637 0.959129 0.520174 0 1.25277 
638 1 638 0.959076 0.560204 0 1.88378 
639 1 639 0.959028 0.600237 0 2.39028 
640 1 640 0.958981 0.64027 0 2.92531 
641 1 641 0.95893 0.680307 0 3.43415 
642 1 642 0.95889 0.720344 0 3.90579 
643 1 643 0.958858 0.760382 0 4.41969 
644 1 644 0.958833 0.800416 0 4.7999 
645 1 645 0.958803 0.840451 0 5.03408 
646 1 646 0.958779 0.880484 0 5.13777 
647 1 647 0.958757 0.920518 0 5.16293 
648 1 648 0.958748 0.960549 0 5.14331 
649 1 649 0.95875 1.00058 0 5.23012 
650 1 650 1 0 0 0 
651 1 651 0.999923 0.0399978 0 0.10269 
652 1 652 0.999843 0.0799969 0 0.0521254 
653 1 653 0.999764 0.12 0 -0.114677 
654 1 654 0.99969 0.160006 0 -0.360882 
655 1 655 0.999615 0.200015 0 -0.65975 
656 1 656 0.999542 0.240026 0 -0.826799 
657 1 657 0.999471 0.280037 0 -0.72533 
658 1 658 0.9994 0.320048 0 -0.569718 
659 1 659 0.999335 0.360061 0 -0.284425 
660 1 660 0.99927 0.400077 0 0.0478436 
661 1 661 0.999209 0.440097 0 0.39262 
662 1 662 0.999145 0.480121 0 0.928708 
663 1 663 0.999087 0.520149 0 1.42655 
664 1 664 0.999028 0.56018 0 2.05926 
665 1 665 0.998969 0.600216 0 2.53946 
666 1 666 0.998919 0.640254 0 2.97365 
667 1 667 0.998878 0.680293 0 3.42394 
668 1 668 0.998841 0.72033 0 3.87593 
669 1 669 0.998802 0.760367 0 4.30677 
670 1 670 0.998772 0.800403 0 4.67182 
671 1 671 0.998743 0.840438 0 4.93112 
672 1 672 0.998718 0.880471 0 5.12631 
673 1 673 0.998693 0.920506 0 5.27058 
674 1 674 0.998685 0.960538 0 5.41556 
675 1 675 0.998689 1.00057 0 5.62707 
676 1 676 1.04 0 0 0 
677 1 677 1.03992 0.0399976 0 0.212405 
678 1 678 1.03984 0.0799959 0 0.183044 
679 1 679 1.03976 0.119997 0 -0.0166689 
680 1 680 1.03968 0.160002 0 -0.335281 
681 1 681 1.0396 0.200009 0 -0.694195 
682 1 682 1.03952 0.240018 0 -0.915624 
683 1 683 1.03945 0.280028 0 -0.858343 
684 1 684 1.03937 0.320038 0 -0.687561 
685 1 685 1.0393 0.36005 0 -0.353147 
686 1 686 1.03923 0.400065 0 0.0304831 
687 1 687 1.03917 0.440084 0 0.386912 
688 1 688 1.0391 0.480107 0 0.997908 
689 1 689 1.03903 0.520134 0 1.59861 
690 1 690 1.03897 0.560165 0 2.24467 
691 1 691 1.03891 0.600197 0 2.75719 
692 1 692 1.03885 0.640231 0 3.11082 
693 1 693 1.0388 0.680268 0 3.45516 
694 1 694 1.03875 0.720307 0 3.90272 
695 1 695 1.03872 0.760345 0 4.29502 
696 1 696 1.03869 0.800382 0 4.62053 
697 1 697 1.03867 0.84042 0 4.87078 
698 1 698 1.03864 0.880456 0 5.09808 
699 1 699 1.03862 0.920493 0 5.32035 
700 1 700 1.03861 0.960528 0 5.6493 
701 1 701 1.03861 1.00056 0 5.99127 
702 1 702 1.08 0 0 0 
703 1 703 1.07992 0.0399972 0 0.250177 
704 1 704 1.07983 0.0799959 0 0.254898 
705 1 705 1.07975 0.119997 0 0.0869153 
706 1 706 1.07966 0.16 0 -0.268781 
707 1 707 1.07958 0.200006 0 -0.679315 
708 1 708 1.0795 0.240014 0 -0.92352 
709 1 709 1.07942 0.280023 0 -0.871051 
710 1 710 1.07934 0.320032 0 -0.693457 
711 1 711 1.07927 0.360043 0 -0.385078 
712 1 712 1.0792 0.400056 0 0.025086 
713 1 713 1.07912 0.440074 0 0.444284 
714 1 714 1.07905 0.480095 0 1.14352 
715 1 715 1.07899 0.52012 0 1.82633 
716 1 716 1.07892 0.560149 0 2.41909 
717 1 717 1.07885 0.600182 0 2.90469 
718 1 718 1.07879 0.640218 0 3.22539 
719 1 719 1.07875 0.680255 0 3.49218 
720 1 720 1.0787 0.720292 0 3.88163 
721 1 721 1.07866 0.76033 0 4.21026 
722 1 722 1.07863 0.800369 0 4.53509 
723 1 723 1.0786 0.840409 0 4.84472 
724 1 724 1.07858 0.880447 0 5.12559 
725 1 725 1.07855 0.920486 0 5.41363 
726 1 726 1.07854 0.960523 0 5.86847 
727 1 727 1.07854 1.00056 0 6.28048 
728 1 728 1.12 0 0 0 
729 1 729 1.11992 0.0399965 0 0.142183 
730 1 730 1.11983 0.0799951 0 0.165643 
731 1 731 1.11974 0.119996 0 0.0735912 
732 1 732 1.11965 0.159999 0 -0.248667 
733 1 733 1.11956 0.200005 0 -0.613253 
734 1 734 1.11948 0.240012 0 -0.835905 
735 1 735 1.11939 0.280021 0 -0.832292 
736 1 736 1.11931 0.320031 0 -0.652668 
737 1 737 1.11924 0.360043 0 -0.30681 
738 1 738 1.11916 0.400057 0 0.18032 
739 1 739 1.11908 0.440075 0 0.653357 
740 1 740 1.119 0.480094 0 1.34829 
741 1 741 1.11893 0.520118 0 2.04351 
742 1 742 1.11886 0.560144 0 2.56413 
743 1 743 1.1188 0.600171 0 3.00284 
744 1 744 1.11873 0.640201 0 3.31017 
745 1 745 1.11866 0.680235 0 3.53759 
746 1 746 1.11861 0.720271 0 3.93238 
747 1 747 1.11858 0.760311 0 4.23721 
748 1 748 1.11855 0.800351 0 4.46801 
749 1 749 1.11852 0.840394 0 4.73987 
750 1 750 1.11849 0.880437 0 5.08092 
751 1 751 1.11847 0.92048 0 5.46405 
752 1 752 1.11846 0.96052 0 6.01315 
753 1 753 1.11845 1.00056 0 6.45624 
754 1 754 1.16 0 0 0 
755 1 755 1.15991 0.0399956 0 -0.0511139 
756 1 756 1.15982 0.079995 0 -0.0456989 
757 1 757 1.15973 0.119997 0 -0.0612573 
758 1 758 1.15963 0.159999 0 -0.300359 
759 1 759 1.15954 0.200003 0 -0.540435 
760 1 760 1.15945 0.240009 0 -0.664657 
761 1 761 1.15937 0.280018 0 -0.623693 
762 1 762 1.15928 0.320028 0 -0.358822 
763 1 763 1.1592 0.36004 0 -0.000137122 
764 1 764 1.15912 0.400053 0 0.441875 
765 1 765 1.15904 0.440071 0 0.905401 
766 1 766 1.15896 0.48009 0 1.56919 
767 1 767 1.15889 0.520113 0 2.26129 
768 1 768 1.15881 0.560138 0 2.72249 
769 1 769 1.15873 0.600166 0 3.06434 
770 1 770 1.15867 0.640198 0 3.30654 
771 1 771 1.15861 0.68023 0 3.47592 
772 1 772 1.15857 0.720265 0 3.84092 
773 1 773 1.15852 0.760303 0 4.14025 
774 1 774 1.15848 0.800345 0 4.37103 
775 1 775 1.15845 0.84039 0 4.70279 
776 1 776 1.15842 0.880435 0 5.1144 
777 1 777 1.1584 0.92048 0 5.53981 
778 1 778 1.15838 0.960521 0 6.17651 
779 1 779 1.15838 1.00056 0 6.66943 
780 1 780 1.2 0 0 0 
781 1 781 1.1999 0.0399952 0 -0.212332 
782 1 782 1.19981 0.0799942 0 -0.235114 
783 1 783 1.19971 0.119995 0 -0.163389 
784 1 784 1.19961 0.159996 0 -0.27181 
785 1 785 1.19952 0.2 0 -0.374822 
786 1 786 1.19943 0.240006 0 -0.38255 
787 1 787 1.19934 0.280014 0 -0.298846 
788 1 788 1.19925 0.320024 0 -0.0151706 
789 1 789 1.19916 0.360038 0 0.329669 
790 1 790 1.19908 0.400053 0 0.790657 
791 1 791 1.19899 0.440072 0 1.32849 