ITEM: TIMESTEP
0
ITEM: NUMBER OF ATOMS
7127
ITEM: BOX BOUNDS sm sm sm
0 4
0 2
0 0
ITEM: ATOMS id type tag x y z vx 
0 1 0 0 0 0 0 
1 1 1 0 0.04 0 0 
2 1 2 0 0.08 0 0 
3 1 3 0 0.12 0 0 
4 1 4 0 0.16 0 0 
5 1 5 0 0.2 0 0 
6 1 6 0 0.24 0 0 
7 1 7 0 0.28 0 0 
8 1 8 0 0.32 0 0 
9 1 9 0 0.36 0 0 
10 1 10 0 0.4 0 0 
11 1 11 0 0.44 0 0 
12 1 12 0 0.48 0 0 
13 1 13 0 0.52 0 0 
14 1 14 0 0.56 0 0 
15 1 15 0 0.6 0 0 
16 1 16 0 0.64 0 0 
17 1 17 0 0.68 0 0 
18 1 18 0 0.72 0 0 
19 1 19 0 0.76 0 0 
20 1 20 0 0.8 0 0 
21 1 21 0 0.84 0 0 
22 1 22 0 0.88 0 0 
23 1 23 0 0.92 0 0 
24 1 24 0 0.96 0 0 
25 1 25 0 1 0 0 
26 1 26 0.04 0 0 0 
27 1 27 0.0399932 0.0399929 0 -0.170965 
28 1 28 0.0399901 0.0799894 0 -0.268071 
29 1 29 0.039988 0.119986 0 -0.266412 
30 1 30 0.0399863 0.159985 0 -0.366319 
31 1 31 0.0399864 0.199983 0 -0.518561 
32 1 32 0.0399821 0.239982 0 -0.610927 
33 1 33 0.0399794 0.27998 0 -0.557803 
34 1 34 0.0399748 0.319978 0 -0.4091 
35 1 35 0.0399719 0.359977 0 -0.364449 
36 1 36 0.0399677 0.399976 0 -0.267763 
37 1 37 0.0399657 0.439976 0 -0.142622 
38 1 38 0.0399616 0.479978 0 -0.0197211 
39 1 39 0.0399619 0.519982 0 0.120259 
40 1 40 0.0399583 0.559989 0 0.176668 
41 1 41 0.0399593 0.599995 0 0.183588 
42 1 42 0.0399549 0.640003 0 0.118665 
43 1 43 0.0399572 0.680008 0 0.0377579 
44 1 44 0.0399511 0.720014 0 -0.0349365 
45 1 45 0.0399518 0.760017 0 -0.185296 
46 1 46 0.0399464 0.800022 0 -0.258352 
47 1 47 0.0399452 0.840025 0 -0.442497 
48 1 48 0.0399433 0.880034 0 -0.507642 
49 1 49 0.0399387 0.920045 0 -0.443906 
50 1 50 0.0399414 0.960058 0 -0.207045 
51 1 51 0.0398809 1.00011 0 0.0785112 
52 1 52 0.08 0 0 0 
53 1 53 0.0799896 0.0399904 0 -0.295755 
54 1 54 0.0799822 0.0799824 0 -0.427381 
55 1 55 0.0799777 0.119977 0 -0.478473 
56 1 56 0.0799724 0.159973 0 -0.693377 
57 1 57 0.0799695 0.19997 0 -0.864137 
58 1 58 0.079963 0.239966 0 -0.910546 
59 1 59 0.0799576 0.279963 0 -0.871353 
60 1 60 0.079951 0.319959 0 -0.777643 
61 1 61 0.0799435 0.359959 0 -0.772667 
62 1 62 0.079937 0.399958 0 -0.563079 
63 1 63 0.0799301 0.439961 0 -0.279437 
64 1 64 0.0799243 0.479964 0 0.040536 
65 1 65 0.0799184 0.519973 0 0.327835 
66 1 66 0.0799142 0.559981 0 0.411563 
67 1 67 0.0799112 0.599993 0 0.335562 
68 1 68 0.0799095 0.640003 0 0.154135 
69 1 69 0.0799055 0.680016 0 -0.055116 
70 1 70 0.0799035 0.720022 0 -0.167666 
71 1 71 0.0798967 0.760034 0 -0.261179 
72 1 72 0.0798946 0.800041 0 -0.297718 
73 1 73 0.0798857 0.840056 0 -0.437557 
74 1 74 0.079881 0.880069 0 -0.586216 
75 1 75 0.0798752 0.920092 0 -0.615408 
76 1 76 0.0798525 0.960131 0 -0.361684 
77 1 77 0.0798211 1.00015 0 -0.0418423 
78 1 78 0.12 0 0 0 
79 1 79 0.119987 0.0399882 0 -0.406188 
80 1 80 0.119975 0.079979 0 -0.575657 
81 1 81 0.119966 0.119971 0 -0.650827 
82 1 82 0.119957 0.159964 0 -0.83533 
83 1 83 0.119951 0.199959 0 -0.910808 
84 1 84 0.119942 0.239954 0 -0.92167 
85 1 85 0.119934 0.279951 0 -0.949435 
86 1 86 0.119924 0.319947 0 -0.952276 
87 1 87 0.119914 0.359946 0 -0.997007 
88 1 88 0.119904 0.399947 0 -0.749162 
89 1 89 0.119895 0.439952 0 -0.397005 
90 1 90 0.119885 0.479957 0 0.067614 
91 1 91 0.119877 0.519967 0 0.464074 
92 1 92 0.119869 0.559978 0 0.593574 
93 1 93 0.119863 0.599991 0 0.468182 
94 1 94 0.119858 0.640005 0 0.172205 
95 1 95 0.119856 0.680018 0 -0.0971847 
96 1 96 0.119851 0.720033 0 -0.268551 
97 1 97 0.119845 0.760046 0 -0.276853 
98 1 98 0.119836 0.800064 0 -0.266132 
99 1 99 0.119828 0.84008 0 -0.384371 
100 1 100 0.119817 0.880106 0 -0.529121 
101 1 101 0.119799 0.920136 0 -0.6606 
102 1 102 0.119784 0.960163 0 -0.489091 
103 1 103 0.11976 1.0002 0 -0.216305 
104 1 104 0.16 0 0 0 
105 1 105 0.159984 0.0399879 0 -0.445649 
106 1 106 0.159969 0.0799764 0 -0.636876 
107 1 107 0.159955 0.119967 0 -0.658492 
108 1 108 0.15994 0.159958 0 -0.748335 
109 1 109 0.159931 0.199952 0 -0.821372 
110 1 110 0.15992 0.239946 0 -0.879031 
111 1 111 0.159909 0.279942 0 -0.914009 
112 1 112 0.159896 0.319939 0 -0.93634 
113 1 113 0.159884 0.35994 0 -1.01759 
114 1 114 0.159871 0.399942 0 -0.829818 
115 1 115 0.159859 0.439948 0 -0.484981 
116 1 116 0.159846 0.479955 0 0.0574209 
117 1 117 0.159832 0.519966 0 0.478459 
118 1 118 0.159822 0.559977 0 0.619705 
119 1 119 0.159813 0.599991 0 0.498828 
120 1 120 0.159807 0.640005 0 0.15373 
121 1 121 0.159801 0.680021 0 -0.0906076 
122 1 122 0.159794 0.720037 0 -0.173021 
123 1 123 0.159786 0.760057 0 -0.0796204 
124 1 124 0.159776 0.800077 0 0.0294351 
125 1 125 0.159763 0.840104 0 -0.058398 
126 1 126 0.159747 0.880131 0 -0.240232 
127 1 127 0.159731 0.920163 0 -0.472596 
128 1 128 0.159716 0.960197 0 -0.415551 
129 1 129 0.159693 1.00023 0 -0.188814 
130 1 130 0.2 0 0 0 
131 1 131 0.199982 0.039987 0 -0.40273 
132 1 132 0.199962 0.0799741 0 -0.559405 
133 1 133 0.199942 0.119963 0 -0.524799 
134 1 134 0.199925 0.159953 0 -0.590396 
135 1 135 0.19991 0.199946 0 -0.71027 
136 1 136 0.199895 0.23994 0 -0.769061 
137 1 137 0.199882 0.279937 0 -0.844478 
138 1 138 0.199868 0.319935 0 -1.00696 
139 1 139 0.199854 0.359936 0 -1.14067 
140 1 140 0.199838 0.39994 0 -0.993469 
141 1 141 0.199822 0.439946 0 -0.657401 
142 1 142 0.199806 0.479954 0 -0.068187 
143 1 143 0.199789 0.519964 0 0.341992 
144 1 144 0.199775 0.559976 0 0.512437 
145 1 145 0.199761 0.59999 0 0.434834 
146 1 146 0.199752 0.640005 0 0.161418 
147 1 147 0.199746 0.680023 0 -0.00249218 
148 1 148 0.199739 0.720043 0 0.0331153 
149 1 149 0.199727 0.760066 0 0.248373 
150 1 150 0.199714 0.800091 0 0.428952 
151 1 151 0.199699 0.84012 0 0.410304 
152 1 152 0.199682 0.880152 0 0.18525 
153 1 153 0.199662 0.920183 0 -0.183031 
154 1 154 0.199648 0.960218 0 -0.308087 
155 1 155 0.199633 1.00025 0 -0.185262 
156 1 156 0.24 0 0 0 
157 1 157 0.239978 0.0399851 0 -0.325675 
158 1 158 0.239955 0.0799712 0 -0.402715 
159 1 159 0.239931 0.11996 0 -0.359054 
160 1 160 0.239909 0.159951 0 -0.440914 
161 1 161 0.239889 0.199942 0 -0.593131 
162 1 162 0.239872 0.239937 0 -0.72149 
163 1 163 0.239858 0.279934 0 -0.949021 
164 1 164 0.23984 0.319931 0 -1.22908 
165 1 165 0.239824 0.359933 0 -1.34512 
166 1 166 0.239802 0.399936 0 -1.23393 
167 1 167 0.239785 0.439943 0 -0.949213 
168 1 168 0.239765 0.479951 0 -0.389403 
169 1 169 0.239744 0.519962 0 0.0164493 
170 1 170 0.239725 0.559973 0 0.312236 
171 1 171 0.239709 0.599987 0 0.348777 
172 1 172 0.239696 0.640002 0 0.241268 
173 1 173 0.239683 0.680022 0 0.24726 
174 1 174 0.239672 0.720045 0 0.376122 
175 1 175 0.239662 0.760072 0 0.661436 
176 1 176 0.239647 0.800101 0 0.869701 
177 1 177 0.23963 0.840132 0 0.862555 
178 1 178 0.239613 0.880166 0 0.64007 
179 1 179 0.239595 0.920199 0 0.240082 
180 1 180 0.23958 0.960232 0 -0.0521978 
181 1 181 0.239563 1.00027 0 -0.0549072 
182 1 182 0.28 0 0 0 
183 1 183 0.279974 0.0399825 0 -0.194899 
184 1 184 0.279947 0.0799687 0 -0.19965 
185 1 185 0.279919 0.119957 0 -0.205466 
186 1 186 0.279894 0.159947 0 -0.331461 
187 1 187 0.279871 0.199939 0 -0.566122 
188 1 188 0.279852 0.239933 0 -0.884244 
189 1 189 0.279834 0.279929 0 -1.25943 
190 1 190 0.279813 0.319925 0 -1.52543 
191 1 191 0.279794 0.359927 0 -1.59014 
192 1 192 0.279769 0.39993 0 -1.508 
193 1 193 0.279746 0.439937 0 -1.22591 
194 1 194 0.279721 0.479945 0 -0.71545 
195 1 195 0.279698 0.519955 0 -0.322488 
196 1 196 0.279675 0.559967 0 0.0689153 
197 1 197 0.279651 0.599983 0 0.20266 
198 1 198 0.279636 0.640001 0 0.310266 
199 1 199 0.279623 0.680024 0 0.51406 
200 1 200 0.279611 0.720049 0 0.775738 
201 1 201 0.279595 0.760079 0 1.10132 
202 1 202 0.279581 0.80011 0 1.27806 
203 1 203 0.279564 0.840143 0 1.24736 
204 1 204 0.279546 0.880176 0 1.00792 
205 1 205 0.279528 0.920209 0 0.624211 
206 1 206 0.279513 0.960243 0 0.241143 
207 1 207 0.279501 1.00028 0 0.152392 
208 1 208 0.32 0 0 0 
209 1 209 0.319967 0.0399807 0 -0.0488236 
210 1 210 0.319938 0.0799666 0 -0.0536574 
211 1 211 0.319908 0.119954 0 -0.123172 
212 1 212 0.319881 0.159943 0 -0.297097 
213 1 213 0.319855 0.199933 0 -0.662111 
214 1 214 0.319833 0.239927 0 -1.13926 
215 1 215 0.319813 0.279921 0 -1.56764 
216 1 216 0.319788 0.319919 0 -1.78248 
217 1 217 0.319764 0.35992 0 -1.78552 
218 1 218 0.319733 0.399923 0 -1.67989 
219 1 219 0.319706 0.43993 0 -1.37532 
220 1 220 0.319675 0.479939 0 -0.935615 
221 1 221 0.319647 0.51995 0 -0.565693 
222 1 222 0.319619 0.559962 0 -0.107815 
223 1 223 0.319595 0.599977 0 0.132017 
224 1 224 0.319575 0.639996 0 0.475413 
225 1 225 0.319552 0.680021 0 0.79484 
226 1 226 0.319538 0.720048 0 1.08145 
227 1 227 0.319525 0.76008 0 1.3974 
228 1 228 0.31951 0.800113 0 1.5145 
229 1 229 0.319491 0.840148 0 1.47298 
230 1 230 0.319476 0.880182 0 1.2971 
231 1 231 0.31946 0.920216 0 0.994843 
232 1 232 0.319444 0.960248 0 0.606962 
233 1 233 0.319431 1.00028 0 0.500924 
234 1 234 0.36 0 0 0 
235 1 235 0.359963 0.0399796 0 0.0399268 
236 1 236 0.359929 0.0799641 0 0.00930418 
237 1 237 0.359897 0.119949 0 -0.115539 
238 1 238 0.359869 0.159937 0 -0.352202 
239 1 239 0.359841 0.199927 0 -0.821915 
240 1 240 0.359816 0.239918 0 -1.33761 
241 1 241 0.359792 0.279912 0 -1.75014 
242 1 242 0.359763 0.31991 0 -1.92752 
243 1 243 0.359732 0.359911 0 -1.81874 
244 1 244 0.359696 0.399914 0 -1.57887 
245 1 245 0.359662 0.439922 0 -1.24602 
246 1 246 0.359627 0.479931 0 -0.927522 
247 1 247 0.359597 0.519943 0 -0.624014 
248 1 248 0.359565 0.559956 0 -0.164278 
249 1 249 0.359533 0.599974 0 0.148504 
250 1 250 0.359509 0.639995 0 0.656057 
251 1 251 0.359489 0.680022 0 1.0559 
252 1 252 0.359474 0.720051 0 1.35433 
253 1 253 0.359456 0.760084 0 1.5706 
254 1 254 0.359441 0.800117 0 1.59534 
255 1 255 0.359424 0.840151 0 1.53403 
256 1 256 0.359408 0.880185 0 1.42269 
257 1 257 0.359391 0.920218 0 1.25348 
258 1 258 0.359378 0.96025 0 0.98624 
259 1 259 0.35937 1.00028 0 0.960556 
260 1 260 0.4 0 0 0 
261 1 261 0.399957 0.0399791 0 0.0320348 
262 1 262 0.399921 0.0799616 0 -0.0182627 
263 1 263 0.399888 0.119945 0 -0.184408 
264 1 264 0.399857 0.159931 0 -0.452085 
265 1 265 0.399827 0.199919 0 -0.958381 
266 1 266 0.399798 0.239909 0 -1.49215 
267 1 267 0.39977 0.279903 0 -1.85038 
268 1 268 0.399736 0.319902 0 -1.87226 
269 1 269 0.399699 0.359903 0 -1.54675 
270 1 270 0.399657 0.399908 0 -1.16753 
271 1 271 0.399618 0.439917 0 -0.864456 
272 1 272 0.399577 0.479926 0 -0.655359 
273 1 273 0.399541 0.519938 0 -0.425217 
274 1 274 0.399505 0.559953 0 -0.0545838 
275 1 275 0.399476 0.59997 0 0.285453 
276 1 276 0.399446 0.639992 0 0.860545 
277 1 277 0.399416 0.680018 0 1.24183 
278 1 278 0.399398 0.720048 0 1.56164 
279 1 279 0.399381 0.760081 0 1.69423 
280 1 280 0.399367 0.800116 0 1.63191 
281 1 281 0.399347 0.84015 0 1.57243 
282 1 282 0.399335 0.880183 0 1.55541 
283 1 283 0.399322 0.920217 0 1.54807 
284 1 284 0.399311 0.960247 0 1.49562 
285 1 285 0.399303 1.00028 0 1.62801 
286 1 286 0.44 0 0 0 
287 1 287 0.439954 0.0399785 0 -0.0639389 
288 1 288 0.439914 0.0799593 0 -0.108039 
289 1 289 0.43988 0.119942 0 -0.2785 
290 1 290 0.439846 0.159925 0 -0.55691 
291 1 291 0.439813 0.199911 0 -1.02669 
292 1 292 0.439779 0.239902 0 -1.5024 
293 1 293 0.439746 0.279895 0 -1.76376 
294 1 294 0.439706 0.319894 0 -1.62966 
295 1 295 0.439663 0.359896 0 -1.1609 
296 1 296 0.439617 0.399903 0 -0.70628 
297 1 297 0.439571 0.439911 0 -0.392666 
298 1 298 0.439526 0.479921 0 -0.220086 
299 1 299 0.439489 0.519934 0 -0.0812449 
300 1 300 0.439448 0.559951 0 0.15391 
301 1 301 0.439411 0.59997 0 0.498073 
302 1 302 0.439378 0.639994 0 1.09022 
303 1 303 0.439353 0.680021 0 1.41502 
304 1 304 0.439334 0.720051 0 1.6827 
305 1 305 0.439312 0.760083 0 1.69957 
306 1 306 0.439296 0.800115 0 1.61273 
307 1 307 0.43928 0.840148 0 1.58019 
308 1 308 0.439267 0.88018 0 1.6661 
309 1 309 0.439251 0.920213 0 1.83474 
310 1 310 0.439246 0.960242 0 2.014 
311 1 311 0.439244 1.00027 0 2.31879 
312 1 312 0.48 0 0 0 
313 1 313 0.47995 0.0399782 0 -0.161996 
314 1 314 0.479908 0.0799573 0 -0.239101 
315 1 315 0.479872 0.119938 0 -0.412963 
316 1 316 0.479835 0.159921 0 -0.648857 
317 1 317 0.479798 0.199906 0 -1.03331 
318 1 318 0.47976 0.239895 0 -1.44539 
319 1 319 0.479719 0.279889 0 -1.6283 
320 1 320 0.479674 0.319889 0 -1.39065 
321 1 321 0.479627 0.359893 0 -0.845107 
322 1 322 0.479574 0.399901 0 -0.306804 
323 1 323 0.479524 0.43991 0 0.0575115 
324 1 324 0.479475 0.479922 0 0.193395 
325 1 325 0.479431 0.519936 0 0.238842 
326 1 326 0.479387 0.559953 0 0.3852 
327 1 327 0.479352 0.599973 0 0.727284 
328 1 328 0.479315 0.639995 0 1.27541 
329 1 329 0.47928 0.68002 0 1.594 
330 1 330 0.479256 0.720049 0 1.86635 
331 1 331 0.479237 0.760079 0 1.79082 
332 1 332 0.479222 0.80011 0 1.74346 
333 1 333 0.479202 0.840142 0 1.77057 
334 1 334 0.479193 0.880172 0 1.93205 
335 1 335 0.479182 0.920205 0 2.24419 
336 1 336 0.479177 0.960233 0 2.63764 
337 1 337 0.479175 1.00027 0 3.10154 
338 1 338 0.52 0 0 0 
339 1 339 0.519949 0.0399777 0 -0.223321 
340 1 340 0.519904 0.0799563 0 -0.310541 
341 1 341 0.519864 0.119936 0 -0.46978 
342 1 342 0.519823 0.159918 0 -0.688934 
343 1 343 0.519781 0.199902 0 -1.03585 
344 1 344 0.519737 0.239892 0 -1.41146 
345 1 345 0.519691 0.279887 0 -1.53373 
346 1 346 0.519639 0.319889 0 -1.25604 
347 1 347 0.519587 0.359893 0 -0.687505 
348 1 348 0.519531 0.399902 0 -0.061045 
349 1 349 0.519475 0.439912 0 0.319852 
350 1 350 0.519422 0.479926 0 0.401172 
351 1 351 0.519376 0.519941 0 0.420278 
352 1 352 0.519329 0.559959 0 0.562241 
353 1 353 0.519286 0.59998 0 0.922291 
354 1 354 0.519247 0.640003 0 1.41356 
355 1 355 0.519221 0.680028 0 1.7343 
356 1 356 0.519196 0.720054 0 2.01493 
357 1 357 0.51917 0.760081 0 1.91777 
358 1 358 0.519154 0.800108 0 1.98135 
359 1 359 0.519136 0.840137 0 2.07042 
360 1 360 0.519125 0.880165 0 2.2918 
361 1 361 0.519111 0.920196 0 2.72542 
362 1 362 0.519111 0.960225 0 3.26867 
363 1 363 0.519113 1.00026 0 3.83339 
364 1 364 0.56 0 0 0 
365 1 365 0.559947 0.0399775 0 -0.214117 
366 1 366 0.559899 0.0799553 0 -0.316664 
367 1 367 0.559856 0.119934 0 -0.517365 
368 1 368 0.55981 0.159916 0 -0.767528 
369 1 369 0.559764 0.199901 0 -1.05472 
370 1 370 0.559712 0.239892 0 -1.37251 
371 1 371 0.559659 0.279889 0 -1.47739 
372 1 372 0.559602 0.319893 0 -1.22638 
373 1 373 0.559545 0.3599 0 -0.732706 
374 1 374 0.559485 0.399911 0 -0.124405 
375 1 375 0.559427 0.439923 0 0.295455 
376 1 376 0.559371 0.479937 0 0.470143 
377 1 377 0.559318 0.519953 0 0.553783 
378 1 378 0.559268 0.559971 0 0.675297 
379 1 379 0.55923 0.59999 0 1.02097 
380 1 380 0.559188 0.640009 0 1.50276 
381 1 381 0.559151 0.680029 0 1.86866 
382 1 382 0.559121 0.720052 0 2.16645 
383 1 383 0.5591 0.760076 0 2.13831 
384 1 384 0.559082 0.800102 0 2.37424 
385 1 385 0.55906 0.840129 0 2.54684 
386 1 386 0.559052 0.880157 0 2.8075 
387 1 387 0.559041 0.920187 0 3.25496 
388 1 388 0.559039 0.960217 0 3.79694 
389 1 389 0.559038 1.00025 0 4.3692 
390 1 390 0.6 0 0 0 
391 1 391 0.599946 0.0399767 0 -0.120233 
392 1 392 0.599895 0.079954 0 -0.278215 
393 1 393 0.599846 0.119933 0 -0.564056 
394 1 394 0.599796 0.159916 0 -0.849839 
395 1 395 0.599742 0.199903 0 -1.08962 
396 1 396 0.599684 0.239896 0 -1.38633 
397 1 397 0.599624 0.279896 0 -1.51375 
398 1 398 0.599562 0.319901 0 -1.30161 
399 1 399 0.599501 0.35991 0 -0.875595 
400 1 400 0.59944 0.399924 0 -0.283583 
401 1 401 0.599379 0.439936 0 0.173699 
402 1 402 0.599319 0.479951 0 0.408698 
403 1 403 0.599267 0.519967 0 0.545742 
404 1 404 0.599214 0.559985 0 0.728693 
405 1 405 0.599167 0.600003 0 1.11021 
406 1 406 0.599126 0.640022 0 1.59596 
407 1 407 0.599099 0.680041 0 2.0153 
408 1 408 0.599069 0.72006 0 2.35338 
409 1 409 0.599039 0.76008 0 2.45074 
410 1 410 0.599017 0.800102 0 2.83555 
411 1 411 0.598997 0.840126 0 3.07096 
412 1 412 0.598984 0.880152 0 3.33972 
413 1 413 0.598968 0.920182 0 3.75787 
414 1 414 0.598969 0.960213 0 4.28434 
415 1 415 0.59897 1.00025 0 4.83971 
416 1 416 0.64 0 0 0 
417 1 417 0.639944 0.039976 0 0.0432198 
418 1 418 0.63989 0.0799534 0 -0.176596 
419 1 419 0.639835 0.119934 0 -0.567399 
420 1 420 0.639777 0.159918 0 -0.91209 
421 1 421 0.639718 0.199908 0 -1.13453 
422 1 422 0.639652 0.239903 0 -1.38029 
423 1 423 0.639585 0.279905 0 -1.48763 
424 1 424 0.639518 0.319914 0 -1.32604 
425 1 425 0.639455 0.359926 0 -0.996653 
426 1 426 0.639391 0.399941 0 -0.428979 
427 1 427 0.639331 0.439955 0 0.0935433 
428 1 428 0.63927 0.479971 0 0.406261 
429 1 429 0.639211 0.519986 0 0.605439 
430 1 430 0.639157 0.560003 0 0.860605 
431 1 431 0.639116 0.600018 0 1.22378 
432 1 432 0.639074 0.640032 0 1.63871 
433 1 433 0.639035 0.680046 0 2.05647 
434 1 434 0.638999 0.720061 0 2.4552 
435 1 435 0.638974 0.760079 0 2.73403 
436 1 436 0.638948 0.8001 0 3.24848 
437 1 437 0.638922 0.840125 0 3.57317 
438 1 438 0.63891 0.880151 0 3.85189 
439 1 439 0.638897 0.920181 0 4.16968 
440 1 440 0.638893 0.960212 0 4.59677 
441 1 441 0.638887 1.00025 0 5.07363 
442 1 442 0.68 0 0 0 
443 1 443 0.679942 0.0399748 0 0.176548 
444 1 444 0.679882 0.0799529 0 -0.101007 
445 1 445 0.67982 0.119935 0 -0.566773 
446 1 446 0.679756 0.159922 0 -0.930964 
447 1 447 0.679689 0.199914 0 -1.10219 
448 1 448 0.679616 0.239913 0 -1.2605 
449 1 449 0.679543 0.279917 0 -1.31893 
450 1 450 0.679472 0.319928 0 -1.1872 
451 1 451 0.679406 0.359941 0 -0.95464 
452 1 452 0.679344 0.399956 0 -0.470699 
453 1 453 0.679282 0.439972 0 0.08341 
454 1 454 0.679219 0.479988 0 0.507107 
455 1 455 0.679164 0.520003 0 0.7923 
456 1 456 0.679109 0.560019 0 1.07775 
457 1 457 0.679059 0.600034 0 1.36601 
458 1 458 0.679018 0.640049 0 1.71862 
459 1 459 0.678988 0.680063 0 2.12021 
460 1 460 0.678954 0.720076 0 2.55229 
461 1 461 0.678917 0.760092 0 2.99961 
462 1 462 0.678887 0.800111 0 3.61284 
463 1 463 0.678863 0.840132 0 4.04447 
464 1 464 0.678842 0.880158 0 4.30892 
465 1 465 0.678823 0.920187 0 4.4763 
466 1 466 0.678819 0.960219 0 4.765 
467 1 467 0.678812 1.00026 0 5.12368 
468 1 468 0.72 0 0 0 
469 1 469 0.719937 0.0399746 0 0.230447 
470 1 470 0.719872 0.0799525 0 -0.0586448 
471 1 471 0.719803 0.119936 0 -0.509837 
472 1 472 0.719731 0.159926 0 -0.843783 
473 1 473 0.719657 0.199921 0 -0.94626 
474 1 474 0.719577 0.239924 0 -0.997301 
475 1 475 0.719498 0.27993 0 -1.00151 
476 1 476 0.719424 0.319942 0 -0.894648 
477 1 477 0.719356 0.359956 0 -0.694767 
478 1 478 0.719292 0.399972 0 -0.264672 
479 1 479 0.719232 0.439989 0 0.249573 
480 1 480 0.71917 0.480006 0 0.71261 
481 1 481 0.719109 0.520021 0 1.06924 
482 1 482 0.719054 0.560037 0 1.38624 
483 1 483 0.719011 0.60005 0 1.5877 
484 1 484 0.718968 0.640061 0 1.83493 
485 1 485 0.718923 0.680073 0 2.14727 
486 1 486 0.718885 0.720086 0 2.58693 
487 1 487 0.718852 0.760102 0 3.18021 
488 1 488 0.718819 0.800121 0 3.84171 
489 1 489 0.718789 0.840143 0 4.38078 
490 1 490 0.718768 0.880169 0 4.64015 
491 1 491 0.718753 0.920197 0 4.69436 
492 1 492 0.718739 0.96023 0 4.89297 
493 1 493 0.718723 1.00027 0 5.13808 
494 1 494 0.76 0 0 0 
495 1 495 0.759933 0.0399737 0 0.209423 
496 1 496 0.75986 0.0799521 0 -0.0510452 
497 1 497 0.759783 0.119938 0 -0.410323 
498 1 498 0.759704 0.159931 0 -0.654752 
499 1 499 0.759623 0.199929 0 -0.675137 
500 1 500 0.759536 0.239933 0 -0.593137 
501 1 501 0.759453 0.279941 0 -0.489376 
502 1 502 0.759374 0.319953 0 -0.408202 
503 1 503 0.759305 0.359967 0 -0.28829 
504 1 504 0.75924 0.399982 0 0.0607836 
505 1 505 0.75918 0.439999 0 0.553308 
506 1 506 0.759117 0.480016 0 1.04657 
507 1 507 0.75906 0.520032 0 1.4171 
508 1 508 0.759003 0.560048 0 1.73238 
509 1 509 0.75895 0.600063 0 1.84646 
510 1 510 0.758909 0.640079 0 1.97923 
511 1 511 0.758876 0.680093 0 2.18877 
512 1 512 0.758838 0.720107 0 2.62097 
513 1 513 0.758794 0.760124 0 3.3339 
514 1 514 0.758759 0.800142 0 4.03336 
515 1 515 0.758732 0.840162 0 4.63915 
516 1 516 0.758702 0.880187 0 4.84149 
517 1 517 0.758679 0.920216 0 4.77788 
518 1 518 0.758663 0.960249 0 4.85971 
519 1 519 0.758646 1.00029 0 4.96159 
520 1 520 0.8 0 0 0 
521 1 521 0.799925 0.0399731 0 0.0383348 
522 1 522 0.799846 0.0799521 0 -0.143058 
523 1 523 0.799761 0.119939 0 -0.299636 
524 1 524 0.799674 0.159934 0 -0.38302 
525 1 525 0.799586 0.199935 0 -0.298799 
526 1 526 0.799495 0.239941 0 -0.0981731 
527 1 527 0.799406 0.27995 0 0.104714 
528 1 528 0.799324 0.319962 0 0.191634 
529 1 529 0.799253 0.359975 0 0.257409 
530 1 530 0.799185 0.399991 0 0.463788 
531 1 531 0.799125 0.440007 0 0.844307 
532 1 532 0.799062 0.480025 0 1.35342 
533 1 533 0.799 0.520041 0 1.76846 
534 1 534 0.798943 0.560058 0 2.09548 
535 1 535 0.798898 0.600073 0 2.13564 
536 1 536 0.798853 0.640087 0 2.15518 
537 1 537 0.798804 0.680102 0 2.27203 
538 1 538 0.798762 0.720119 0 2.68147 
539 1 539 0.798726 0.760138 0 3.43699 
540 1 540 0.79869 0.800158 0 4.12477 
541 1 541 0.798656 0.840182 0 4.7674 
542 1 542 0.798628 0.880208 0 4.95979 
543 1 543 0.798608 0.920237 0 4.85338 
544 1 544 0.798582 0.960271 0 4.82137 
545 1 545 0.798556 1.00031 0 4.77689 
546 1 546 0.84 0 0 0 
547 1 547 0.839919 0.0399725 0 -0.168745 
548 1 548 0.839831 0.0799523 0 -0.232102 
549 1 549 0.839738 0.119941 0 -0.153321 
550 1 550 0.839645 0.159937 0 -0.0639543 
551 1 551 0.839549 0.199939 0 0.127154 
552 1 552 0.839453 0.239947 0 0.419213 
553 1 553 0.839361 0.279955 0 0.692022 
554 1 554 0.839275 0.319967 0 0.786289 
555 1 555 0.8392 0.359979 0 0.81884 
556 1 556 0.839131 0.399993 0 0.908663 
557 1 557 0.839068 0.440008 0 1.15062 
558 1 558 0.839004 0.480025 0 1.57835 
559 1 559 0.838946 0.520042 0 1.9541 
560 1 560 0.838888 0.56006 0 2.27948 
561 1 561 0.83883 0.600077 0 2.29389 
562 1 562 0.838786 0.640098 0 2.24536 
563 1 563 0.838749 0.680118 0 2.3311 
564 1 564 0.83871 0.720139 0 2.72744 
565 1 565 0.838664 0.760161 0 3.46498 
566 1 566 0.838627 0.800182 0 4.11608 
567 1 567 0.838597 0.840206 0 4.71609 
568 1 568 0.838561 0.880232 0 4.87502 
569 1 569 0.838532 0.920262 0 4.79502 
570 1 570 0.838505 0.960297 0 4.71533 
571 1 571 0.838481 1.00033 0 4.57296 
572 1 572 0.88 0 0 0 
573 1 573 0.87991 0.0399725 0 -0.328161 
574 1 574 0.879815 0.0799526 0 -0.262076 
575 1 575 0.879715 0.119941 0 0.0148601 
576 1 576 0.879613 0.159939 0 0.228302 
577 1 577 0.879511 0.199942 0 0.48431 
578 1 578 0.879411 0.23995 0 0.85576 
579 1 579 0.879315 0.279959 0 1.2231 
580 1 580 0.879227 0.319969 0 1.33939 
581 1 581 0.879149 0.359981 0 1.32031 
582 1 582 0.879075 0.399994 0 1.27891 
583 1 583 0.87901 0.44001 0 1.3702 
584 1 584 0.878945 0.480026 0 1.70125 
585 1 585 0.878881 0.520044 0 2.02351 
586 1 586 0.878823 0.560063 0 2.33232 
587 1 587 0.878774 0.60008 0 2.35169 
588 1 588 0.878724 0.640099 0 2.26827 
589 1 589 0.878668 0.680121 0 2.34105 
590 1 590 0.878623 0.720145 0 2.72075 
591 1 591 0.878588 0.760171 0 3.4272 
592 1 592 0.87855 0.800197 0 4.05729 
593 1 593 0.878515 0.840225 0 4.59986 
594 1 594 0.878483 0.880254 0 4.75256 
595 1 595 0.878458 0.920285 0 4.70213 
596 1 596 0.878423 0.960321 0 4.57259 
597 1 597 0.878393 1.00036 0 4.37601 
598 1 598 0.92 0 0 0 
599 1 599 0.919904 0.0399725 0 -0.399884 
600 1 600 0.919798 0.0799541 0 -0.243862 
601 1 601 0.919689 0.119943 0 0.178427 
602 1 602 0.919582 0.159941 0 0.500007 
603 1 603 0.919475 0.199945 0 0.806163 
604 1 604 0.91937 0.239952 0 1.22783 
605 1 605 0.919272 0.279961 0 1.64778 
606 1 606 0.919179 0.31997 0 1.79397 
607 1 607 0.919096 0.35998 0 1.76221 
608 1 608 0.91902 0.399992 0 1.59346 
609 1 609 0.918952 0.440006 0 1.47872 
610 1 610 0.918884 0.480023 0 1.65414 
611 1 611 0.918825 0.520041 0 1.90995 
612 1 612 0.918765 0.560059 0 2.18192 
613 1 613 0.918702 0.60008 0 2.21258 
614 1 614 0.91865 0.640105 0 2.1431 
615 1 615 0.918609 0.680132 0 2.26395 
616 1 616 0.918564 0.72016 0 2.65288 
617 1 617 0.918518 0.760188 0 3.29674 
618 1 618 0.91848 0.800215 0 3.85416 
619 1 619 0.918448 0.840244 0 4.29715 
620 1 620 0.91841 0.880274 0 4.51759 
621 1 621 0.918375 0.920308 0 4.58301 
622 1 622 0.918344 0.960345 0 4.43834 
623 1 623 0.91832 1.00038 0 4.22008 
624 1 624 0.96 0 0 0 
625 1 625 0.959893 0.0399738 0 -0.33714 
626 1 626 0.959782 0.0799564 0 -0.096468 
627 1 627 0.959666 0.119945 0 0.420701 
628 1 628 0.95955 0.159943 0 0.787468 
629 1 629 0.959437 0.199946 0 1.07953 
630 1 630 0.95933 0.239953 0 1.50785 
631 1 631 0.959228 0.279961 0 1.95777 
632 1 632 0.959133 0.31997 0 2.14471 
633 1 633 0.959047 0.35998 0 2.10334 
634 1 634 0.958965 0.399992 0 1.84493 
635 1 635 0.958894 0.440006 0 1.57825 
636 1 636 0.958826 0.480023 0 1.56509 
637 1 637 0.95876 0.520041 0 1.67234 
638 1 638 0.958699 0.560061 0 1.87937 
639 1 639 0.958645 0.600082 0 2.00685 
640 1 640 0.958586 0.640103 0 2.01564 
641 1 641 0.958521 0.680129 0 2.17393 
642 1 642 0.95847 0.72016 0 2.57627 
643 1 643 0.958434 0.760191 0 3.14802 
644 1 644 0.958395 0.800223 0 3.61901 
645 1 645 0.958357 0.840256 0 3.98099 
646 1 646 0.958324 0.880289 0 4.26916 
647 1 647 0.958293 0.920325 0 4.38923 
648 1 648 0.958259 0.960363 0 4.23857 
649 1 649 0.958233 1.0004 0 4.05297 
650 1 650 1 0 0 0 
651 1 651 0.999887 0.0399751 0 -0.157341 
652 1 652 0.999765 0.079959 0 0.138672 
653 1 653 0.999641 0.119948 0 0.633986 
654 1 654 0.99952 0.159946 0 0.98728 
655 1 655 0.999402 0.199949 0 1.30047 
656 1 656 0.99929 0.239954 0 1.76608 
657 1 657 0.999186 0.279962 0 2.24177 
658 1 658 0.999087 0.319969 0 2.46127 
659 1 659 0.998996 0.359978 0 2.3719 
660 1 660 0.998913 0.399989 0 1.98737 
661 1 661 0.998836 0.440003 0 1.55176 
662 1 662 0.998765 0.48002 0 1.37939 
663 1 663 0.998704 0.520039 0 1.4226 
664 1 664 0.998641 0.560057 0 1.56012 
665 1 665 0.998571 0.600081 0 1.71613 
666 1 666 0.998509 0.640109 0 1.81646 
667 1 667 0.998461 0.680139 0 2.07113 
668 1 668 0.998409 0.72017 0 2.48286 
669 1 669 0.998358 0.760202 0 2.92236 
670 1 670 0.998317 0.800235 0 3.28643 
671 1 671 0.998283 0.840267 0 3.57551 
672 1 672 0.998242 0.880303 0 3.90817 
673 1 673 0.998203 0.92034 0 4.1054 
674 1 674 0.998176 0.960379 0 4.09076 
675 1 675 0.998158 1.00042 0 4.03624 
676 1 676 1.04 0 0 0 
677 1 677 1.03988 0.0399772 0 0.0553461 
678 1 678 1.03975 0.0799622 0 0.406942 
679 1 679 1.03962 0.119952 0 0.88269 
680 1 680 1.03949 0.15995 0 1.2348 
681 1 681 1.03937 0.199951 0 1.57433 
682 1 682 1.03925 0.239955 0 2.04568 
683 1 683 1.03914 0.279962 0 2.46183 
684 1 684 1.03904 0.319969 0 2.64401 
685 1 685 1.03895 0.359979 0 2.52375 
686 1 686 1.03886 0.39999 0 2.09144 
687 1 687 1.03878 0.440004 0 1.54676 
688 1 688 1.03871 0.48002 0 1.21473 
689 1 689 1.03864 0.520039 0 1.16682 
690 1 690 1.03857 0.56006 0 1.25546 
691 1 691 1.03851 0.600082 0 1.5194 
692 1 692 1.03844 0.640105 0 1.73261 
693 1 693 1.03837 0.680133 0 2.01074 
694 1 694 1.03831 0.720166 0 2.39518 
695 1 695 1.03827 0.760199 0 2.6997 
696 1 696 1.03823 0.800235 0 2.91632 
697 1 697 1.03818 0.840271 0 3.11536 
698 1 698 1.03815 0.880309 0 3.488 
699 1 699 1.03812 0.920347 0 3.7452 
700 1 700 1.03808 0.960387 0 3.83771 
701 1 701 1.03806 1.00043 0 3.88815 
702 1 702 1.08 0 0 0 
703 1 703 1.07987 0.0399791 0 0.244447 
704 1 704 1.07973 0.079966 0 0.636868 
705 1 705 1.07959 0.119957 0 1.11116 
706 1 706 1.07946 0.159953 0 1.4664 
707 1 707 1.07933 0.199953 0 1.81564 
708 1 708 1.07921 0.239956 0 2.28741 
709 1 709 1.0791 0.279962 0 2.65822 
710 1 710 1.079 0.319968 0 2.83064 
711 1 711 1.0789 0.359976 0 2.67898 
712 1 712 1.07881 0.399986 0 2.1813 
713 1 713 1.07872 0.439999 0 1.56032 
714 1 714 1.07864 0.480016 0 1.11563 
715 1 715 1.07858 0.520035 0 0.976214 
716 1 716 1.07851 0.560055 0 0.974591 
717 1 717 1.07844 0.60008 0 1.30554 
718 1 718 1.07837 0.64011 0 1.66532 
719 1 719 1.07831 0.680141 0 2.00383 
720 1 720 1.07825 0.720173 0 2.33167 
721 1 721 1.07819 0.760206 0 2.47481 
722 1 722 1.07814 0.800241 0 2.51907 
723 1 723 1.0781 0.840277 0 2.60001 
724 1 724 1.07806 0.880316 0 3.00846 
725 1 725 1.07802 0.920355 0 3.37398 
726 1 726 1.07799 0.960396 0 3.5958 
727 1 727 1.07798 1.00044 0 3.72933 
728 1 728 1.12 0 0 0 
729 1 729 1.11986 0.0399814 0 0.439754 
730 1 730 1.11971 0.0799683 0 0.821202 
731 1 731 1.11957 0.11996 0 1.24276 
732 1 732 1.11943 0.159956 0 1.63984 
733 1 733 1.1193 0.199955 0 2.06074 
734 1 734 1.11918 0.239957 0 2.54867 
735 1 735 1.11906 0.279961 0 2.8582 
736 1 736 1.11895 0.319967 0 2.97334 
737 1 737 1.11885 0.359976 0 2.75833 
738 1 738 1.11875 0.399985 0 2.20779 
739 1 739 1.11866 0.439998 0 1.56788 
740 1 740 1.11858 0.480013 0 1.0787 
741 1 741 1.11851 0.520032 0 0.887773 
742 1 742 1.11844 0.560054 0 0.825272 
743 1 743 1.11838 0.600079 0 1.1961 
744 1 744 1.1183 0.640104 0 1.66493 
745 1 745 1.11821 0.680133 0 2.06277 
746 1 746 1.11815 0.720166 0 2.31434 
747 1 747 1.1181 0.7602 0 2.26805 
748 1 748 1.11804 0.800238 0 2.13676 
749 1 749 1.118 0.840276 0 2.10586 
750 1 750 1.11796 0.880316 0 2.47687 
751 1 751 1.11792 0.920357 0 2.88879 
752 1 752 1.1179 0.9604 0 3.27333 
753 1 753 1.11788 1.00045 0 3.51472 
754 1 754 1.16 0 0 0 
755 1 755 1.15985 0.0399821 0 0.544051 
756 1 756 1.1597 0.0799701 0 0.982363 
757 1 757 1.15955 0.119962 0 1.41642 
758 1 758 1.1594 0.159957 0 1.84142 
759 1 759 1.15927 0.199955 0 2.26292 
760 1 760 1.15914 0.239955 0 2.69061 
761 1 761 1.15902 0.279959 0 2.9252 
762 1 762 1.15891 0.319964 0 3.00411 
763 1 763 1.1588 0.359971 0 2.81277 
764 1 764 1.1587 0.399979 0 2.34284 
765 1 765 1.1586 0.439991 0 1.74986 
766 1 766 1.15852 0.480006 0 1.17789 
767 1 767 1.15845 0.520025 0 0.902671 
768 1 768 1.15837 0.560047 0 0.816197 
769 1 769 1.15829 0.600074 0 1.17159 
770 1 770 1.15821 0.640106 0 1.66049 
771 1 771 1.15815 0.680139 0 2.1287 
772 1 772 1.15808 0.720171 0 2.34436 
773 1 773 1.15802 0.760204 0 2.17943 
774 1 774 1.15796 0.800241 0 1.94692 
775 1 775 1.15791 0.840279 0 1.7961 
776 1 776 1.15786 0.88032 0 2.05465 
777 1 777 1.15782 0.920362 0 2.46046 
778 1 778 1.1578 0.960406 0 2.92519 
779 1 779 1.15779 1.00045 0 3.20114 
780 1 780 1.2 0 0 0 
781 1 781 1.19984 0.0399834 0 0.567851 
782 1 782 1.19968 0.0799706 0 1.04242 
783 1 783 1.19953 0.119962 0 1.46831 
784 1 784 1.19938 0.159956 0 1.94007 
785 1 785 1.19924 0.199954 0 2.42465 
786 1 786 1.19911 0.239953 0 2.84638 