ITEM: TIMESTEP
0
ITEM: NUMBER OF ATOMS
6875
ITEM: BOX BOUNDS sm sm sm
0 4
0 2
0 0
ITEM: ATOMS id type tag x y z damage s11 s22 s33 s12 s13 s23 vx T ienergy 
1 1 1 0.0199997 0.019998 0 0 -0.0225859 -0.0373042 -0.019191 -0.0107544 0 0 0.320199 0 0 
2 1 2 0.0200004 0.0599942 0 0 -0.0123522 -0.0299195 -0.0135437 -0.0223144 0 0 0.658366 0 0 
3 1 3 0.0200002 0.0999897 0 0 -0.0151308 -0.0371432 -0.0167486 -0.0484722 0 0 0.478198 0 0 
4 1 4 0.019998 0.139985 0 0 -0.0456727 -0.0452015 -0.0291202 -0.0682561 0 0 0.470144 0 0 
5 1 5 0.0199956 0.179982 0 0 -0.0794141 -0.0511795 -0.0418534 -0.0808671 0 0 0.55079 0 0 
6 1 6 0.0199927 0.219981 0 0 -0.118536 -0.0597787 -0.0571556 -0.0883895 0 0 0.407498 0 0 
7 1 7 0.0199898 0.259981 0 0 -0.16158 -0.0740295 -0.0755323 -0.0878858 0 0 0.308725 0 0 
8 1 8 0.0199873 0.299981 0 0 -0.199227 -0.0863216 -0.0915545 -0.0841239 0 0 0.18141 0 0 
9 1 9 0.019985 0.339983 0 0 -0.235584 -0.102658 -0.108465 -0.0779696 0 0 0.0619805 0 0 
10 1 10 0.0199829 0.379984 0 0 -0.266471 -0.114221 -0.122092 -0.0707254 0 0 -0.0593127 0 0 
11 1 11 0.0199811 0.419986 0 0 -0.29823 -0.132198 -0.138061 -0.0635745 0 0 -0.158008 0 0 
12 1 12 0.0199793 0.459987 0 0 -0.324195 -0.140535 -0.149077 -0.0562717 0 0 -0.257049 0 0 
13 1 13 0.0199775 0.499989 0 0 -0.355844 -0.16153 -0.165987 -0.0497958 0 0 -0.337031 0 0 
14 1 14 0.0199757 0.539991 0 0 -0.38011 -0.165179 -0.174956 -0.0429557 0 0 -0.415698 0 0 
15 1 15 0.0199738 0.579992 0 0 -0.416232 -0.191576 -0.195047 -0.0364357 0 0 -0.482942 0 0 
16 1 16 0.0199716 0.619994 0 0 -0.441559 -0.188544 -0.202214 -0.0288352 0 0 -0.523463 0 0 
17 1 17 0.0199693 0.659997 0 0 -0.486076 -0.222329 -0.227389 -0.0190947 0 0 -0.586556 0 0 
18 1 18 0.0199666 0.699999 0 0 -0.513952 -0.209371 -0.232186 -0.00740263 0 0 -0.547697 0 0 
19 1 19 0.0199639 0.740004 0 0 -0.565214 -0.249609 -0.26162 0.0128824 0 0 -0.603881 0 0 
20 1 20 0.0199605 0.78001 0 0 -0.600171 -0.226257 -0.265354 0.0308525 0 0 -0.388886 0 0 
21 1 21 0.0199584 0.820018 0 0 -0.637529 -0.265652 -0.290056 0.0794538 0 0 -0.769819 0 0 
22 1 22 0.0199555 0.860027 0 0 -0.67335 -0.225742 -0.28874 0.0939339 0 0 0.526989 0 0 
23 1 23 0.0199513 0.90004 0 0 -0.729624 -0.30509 -0.332411 0.18047 0 0 -1.39642 0 0 
24 1 24 0.0199523 0.94005 0 0 -0.712145 -0.206861 -0.29515 0.192844 0 0 0.998107 0 0 
25 1 25 0.0199227 0.980083 0 0 -1.0753 -0.25885 -0.428939 0.261501 0 0 -0.414691 0 0 
26 1 26 0.0600012 0.0199953 0 0 -0.00933677 -0.0667552 -0.0243836 0.00105686 0 0 0.544854 0 0 
27 1 27 0.0600031 0.0599837 0 0 -0.00917782 -0.0872626 -0.030906 -0.0141447 0 0 1.13073 0 0 
28 1 28 0.0600014 0.0999702 0 0 -0.0360493 -0.100112 -0.0436394 -0.0480035 0 0 1.3247 0 0 
29 1 29 0.0599951 0.139958 0 0 -0.0577256 -0.0915882 -0.0478561 -0.0676306 0 0 1.61581 0 0 
30 1 30 0.0599863 0.179949 0 0 -0.10419 -0.0923392 -0.0629973 -0.0824575 0 0 1.53163 0 0 
31 1 31 0.0599764 0.219945 0 0 -0.153573 -0.0866323 -0.0770072 -0.0910302 0 0 1.21303 0 0 
32 1 32 0.059967 0.259944 0 0 -0.201524 -0.0930698 -0.0944574 -0.0912904 0 0 0.886993 0 0 
33 1 33 0.0599586 0.299945 0 0 -0.24269 -0.0948847 -0.108251 -0.0886702 0 0 0.476513 0 0 
34 1 34 0.0599513 0.339949 0 0 -0.28392 -0.110859 -0.126614 -0.0825986 0 0 0.118907 0 0 
35 1 35 0.0599449 0.379953 0 0 -0.313649 -0.114294 -0.137263 -0.075301 0 0 -0.223461 0 0 
36 1 36 0.0599392 0.419959 0 0 -0.349195 -0.138033 -0.156303 -0.0672016 0 0 -0.495766 0 0 
37 1 37 0.0599339 0.459963 0 0 -0.370304 -0.135809 -0.16237 -0.0587745 0 0 -0.734216 0 0 
38 1 38 0.0599287 0.499969 0 0 -0.406938 -0.168154 -0.184533 -0.0501784 0 0 -0.920811 0 0 
39 1 39 0.0599233 0.539974 0 0 -0.422562 -0.154026 -0.185013 -0.0417125 0 0 -1.06341 0 0 
40 1 40 0.0599176 0.57998 0 0 -0.467044 -0.197243 -0.213203 -0.0317811 0 0 -1.20975 0 0 
41 1 41 0.0599111 0.619986 0 0 -0.480023 -0.165097 -0.207041 -0.0232083 0 0 -1.25306 0 0 
42 1 42 0.0599039 0.659995 0 0 -0.537339 -0.219229 -0.242879 -0.0082355 0 0 -1.43077 0 0 
43 1 43 0.0598955 0.700004 0 0 -0.550973 -0.164103 -0.229534 0.0010355 0 0 -1.28659 0 0 
44 1 44 0.0598865 0.740019 0 0 -0.622054 -0.224103 -0.271703 0.0304012 0 0 -1.58876 0 0 
45 1 45 0.0598763 0.780035 0 0 -0.629229 -0.146395 -0.249009 0.0368049 0 0 -0.866923 0 0 
46 1 46 0.0598669 0.82006 0 0 -0.720972 -0.205383 -0.297516 0.100195 0 0 -1.65425 0 0 
47 1 47 0.0598585 0.860086 0 0 -0.702414 -0.122168 -0.26476 0.0905835 0 0 0.333899 0 0 
48 1 48 0.0598488 0.900122 0 0 -0.770309 -0.155093 -0.297208 0.196439 0 0 -0.995094 0 0 
49 1 49 0.059838 0.940162 0 0 -0.860145 -0.101118 -0.308754 0.173093 0 0 1.35733 0 0 
50 1 50 0.0597816 0.98022 0 0 -0.786342 0.0430899 -0.238595 0.074183 0 0 -0.142605 0 0 
51 1 51 0.100004 0.0199922 0 0 -0.0423856 -0.11662 -0.0509657 0.00737156 0 0 0.147005 0 0 
52 1 52 0.100007 0.059974 0 0 -0.0503766 -0.152349 -0.0649867 -0.022502 0 0 0.802441 0 0 
53 1 53 0.100003 0.0999545 0 0 -0.0646106 -0.148317 -0.0682585 -0.0460166 0 0 1.93724 0 0 
54 1 54 0.0999915 0.139937 0 0 -0.101908 -0.145501 -0.0793189 -0.069116 0 0 2.4972 0 0 
55 1 55 0.0999743 0.179924 0 0 -0.158462 -0.145105 -0.0973378 -0.087604 0 0 2.34727 0 0 
56 1 56 0.0999556 0.219915 0 0 -0.209798 -0.12883 -0.10859 -0.0930973 0 0 2.05081 0 0 
57 1 57 0.099938 0.259913 0 0 -0.267304 -0.13239 -0.128193 -0.0946384 0 0 1.48572 0 0 
58 1 58 0.0999223 0.299914 0 0 -0.312044 -0.123021 -0.139551 -0.0916788 0 0 0.84861 0 0 
59 1 59 0.0999091 0.339919 0 0 -0.358499 -0.137297 -0.159056 -0.0855817 0 0 0.269357 0 0 
60 1 60 0.0998979 0.379925 0 0 -0.387612 -0.130551 -0.166241 -0.0785004 0 0 -0.269056 0 0 
61 1 61 0.0998881 0.419933 0 0 -0.425884 -0.155671 -0.18661 -0.0700776 0 0 -0.716565 0 0 
62 1 62 0.0998791 0.459942 0 0 -0.442665 -0.142947 -0.187914 -0.0616787 0 0 -1.09543 0 0 
63 1 63 0.0998705 0.499952 0 0 -0.480504 -0.17829 -0.211437 -0.0520979 0 0 -1.43517 0 0 
64 1 64 0.0998615 0.539961 0 0 -0.489993 -0.152362 -0.206153 -0.0437088 0 0 -1.68721 0 0 
65 1 65 0.0998519 0.579973 0 0 -0.534915 -0.196606 -0.234823 -0.0320951 0 0 -2.00202 0 0 
66 1 66 0.0998408 0.619985 0 0 -0.543131 -0.153378 -0.223564 -0.0245751 0 0 -2.12458 0 0 
67 1 67 0.0998282 0.660001 0 0 -0.599714 -0.19992 -0.256734 -0.00751767 0 0 -2.48971 0 0 
68 1 68 0.0998134 0.700018 0 0 -0.612549 -0.141735 -0.242145 -0.00180096 0 0 -2.33576 0 0 
69 1 69 0.0997968 0.740043 0 0 -0.679006 -0.174252 -0.273988 0.0274869 0 0 -2.78416 0 0 
70 1 70 0.0997795 0.780071 0 0 -0.698174 -0.120065 -0.262719 0.0338332 0 0 -2.03356 0 0 
71 1 71 0.0997609 0.820109 0 0 -0.749021 -0.107356 -0.274991 0.0746944 0 0 -2.12611 0 0 
72 1 72 0.0997458 0.86015 0 0 -0.790287 -0.102807 -0.286808 0.0951171 0 0 -1.17649 0 0 
73 1 73 0.0997309 0.9002 0 0 -0.793868 -0.0119408 -0.258718 0.126594 0 0 -0.0927289 0 0 
74 1 74 0.0997066 0.940261 0 0 -0.813113 -0.00950761 -0.264127 0.0909206 0 0 0.785378 0 0 
75 1 75 0.0996622 0.980315 0 0 -0.691477 -0.0191976 -0.228118 0.0653306 0 0 -0.142381 0 0 
76 1 76 0.140004 0.0199887 0 0 -0.0879124 -0.180269 -0.0859845 0.0135264 0 0 -0.25721 0 0 
77 1 77 0.140008 0.0599662 0 0 -0.100246 -0.189119 -0.0927818 -0.0170044 0 0 0.275136 0 0 
78 1 78 0.140001 0.0999441 0 0 -0.125074 -0.195982 -0.102951 -0.0428311 0 0 1.71085 0 0 
79 1 79 0.139983 0.139923 0 0 -0.170079 -0.203267 -0.119735 -0.0700382 0 0 2.47318 0 0 
80 1 80 0.139957 0.179906 0 0 -0.221806 -0.19643 -0.134147 -0.0887149 0 0 2.62644 0 0 
81 1 81 0.139928 0.219894 0 0 -0.277023 -0.181415 -0.147057 -0.094815 0 0 2.34374 0 0 
82 1 82 0.139901 0.259889 0 0 -0.33971 -0.18105 -0.167076 -0.0967727 0 0 1.65812 0 0 
83 1 83 0.139877 0.299888 0 0 -0.386676 -0.162553 -0.176223 -0.0929094 0 0 0.93257 0 0 
84 1 84 0.139857 0.339893 0 0 -0.438756 -0.173933 -0.196617 -0.0869894 0 0 0.219125 0 0 
85 1 85 0.13984 0.3799 0 0 -0.468852 -0.157009 -0.200851 -0.0800848 0 0 -0.410307 0 0 
86 1 86 0.139825 0.419911 0 0 -0.510513 -0.180281 -0.221726 -0.0719275 0 0 -0.931309 0 0 
87 1 87 0.139813 0.459923 0 0 -0.526123 -0.158909 -0.219873 -0.0643859 0 0 -1.34497 0 0 
88 1 88 0.139801 0.499937 0 0 -0.564436 -0.190903 -0.242484 -0.0552303 0 0 -1.72314 0 0 
89 1 89 0.139788 0.539951 0 0 -0.572945 -0.159854 -0.235234 -0.048292 0 0 -1.9842 0 0 
90 1 90 0.139774 0.579968 0 0 -0.614445 -0.193893 -0.259534 -0.0374029 0 0 -2.35099 0 0 
91 1 91 0.139759 0.619987 0 0 -0.624497 -0.153057 -0.24963 -0.0321874 0 0 -2.50472 0 0 
92 1 92 0.139741 0.66001 0 0 -0.670826 -0.176097 -0.27195 -0.0173211 0 0 -2.95199 0 0 
93 1 93 0.139719 0.700036 0 0 -0.689889 -0.13399 -0.264534 -0.0134245 0 0 -2.90825 0 0 
94 1 94 0.139695 0.74007 0 0 -0.732515 -0.127855 -0.276277 0.00736526 0 0 -3.21898 0 0 
95 1 95 0.13967 0.780108 0 0 -0.76582 -0.102253 -0.278756 0.0170934 0 0 -2.84763 0 0 
96 1 96 0.139645 0.820154 0 0 -0.785073 -0.0635585 -0.272498 0.040123 0 0 -2.28377 0 0 
97 1 97 0.139623 0.860206 0 0 -0.80952 -0.0432885 -0.273842 0.0610101 0 0 -1.35593 0 0 
98 1 98 0.139602 0.900264 0 0 -0.821691 -0.0208999 -0.270553 0.0647318 0 0 -0.264366 0 0 
99 1 99 0.13958 0.940323 0 0 -0.759357 0.0257178 -0.235502 0.0417219 0 0 0.797148 0 0 
100 1 100 0.139553 0.98038 0 0 -0.679933 -0.011224 -0.221841 0.0482333 0 0 -0.284778 0 0 
101 1 101 0.180002 0.0199864 0 0 -0.133104 -0.23092 -0.116743 0.00592639 0 0 -0.64765 0 0 
102 1 102 0.180002 0.0599609 0 0 -0.172838 -0.229511 -0.129047 -0.0217558 0 0 -0.611186 0 0 
103 1 103 0.179991 0.0999377 0 0 -0.206083 -0.240305 -0.143188 -0.0472753 0 0 0.953317 0 0 
104 1 104 0.179967 0.139915 0 0 -0.241992 -0.247485 -0.157027 -0.074561 0 0 2.11947 0 0 
105 1 105 0.179932 0.179896 0 0 -0.291497 -0.247049 -0.172791 -0.0938219 0 0 2.54381 0 0 
106 1 106 0.179894 0.219881 0 0 -0.345862 -0.235116 -0.186425 -0.100166 0 0 2.43081 0 0 
107 1 107 0.179857 0.259873 0 0 -0.405178 -0.230345 -0.203957 -0.100936 0 0 1.83784 0 0 
108 1 108 0.179824 0.29987 0 0 -0.451048 -0.204999 -0.210554 -0.0957703 0 0 1.10616 0 0 
109 1 109 0.179796 0.339873 0 0 -0.503357 -0.210163 -0.229034 -0.0887643 0 0 0.333456 0 0 
110 1 110 0.179772 0.37988 0 0 -0.53063 -0.181876 -0.228708 -0.0810919 0 0 -0.352474 0 0 
111 1 111 0.179753 0.419892 0 0 -0.571113 -0.198638 -0.24712 -0.0726726 0 0 -0.943386 0 0 
112 1 112 0.179736 0.459906 0 0 -0.583283 -0.167769 -0.241105 -0.0656534 0 0 -1.41682 0 0 
113 1 113 0.17972 0.499924 0 0 -0.617866 -0.190837 -0.259651 -0.0572378 0 0 -1.87459 0 0 
114 1 114 0.179704 0.539942 0 0 -0.624723 -0.155765 -0.250574 -0.0520144 0 0 -2.21603 0 0 
115 1 115 0.179686 0.579965 0 0 -0.659436 -0.174996 -0.26793 -0.0429557 0 0 -2.69571 0 0 
116 1 116 0.179666 0.61999 0 0 -0.671819 -0.138345 -0.260121 -0.0404784 0 0 -2.96211 0 0 
117 1 117 0.179642 0.660021 0 0 -0.707854 -0.141675 -0.272788 -0.0291266 0 0 -3.50451 0 0 
118 1 118 0.179614 0.700055 0 0 -0.7316 -0.109922 -0.270211 -0.0282408 0 0 -3.58359 0 0 
119 1 119 0.179583 0.740096 0 0 -0.763313 -0.0951011 -0.275647 -0.0126139 0 0 -3.8704 0 0 
120 1 120 0.179552 0.780141 0 0 -0.783743 -0.0658574 -0.27281 -0.00741591 0 0 -3.44321 0 0 
121 1 121 0.179521 0.820192 0 0 -0.812126 -0.0584006 -0.279544 0.0105393 0 0 -2.88957 0 0 
122 1 122 0.179496 0.860247 0 0 -0.796555 -0.0124624 -0.25975 0.0238799 0 0 -1.93968 0 0 
123 1 123 0.179475 0.900305 0 0 -0.791123 -0.0294769 -0.263477 0.0221074 0 0 -0.308451 0 0 
124 1 124 0.179457 0.940361 0 0 -0.743596 0.00673576 -0.236539 0.031259 0 0 -0.136687 0 0 
125 1 125 0.179444 0.980416 0 0 -0.68694 -0.00426942 -0.221859 0.0283776 0 0 -0.905118 0 0 
126 1 126 0.219996 0.0199839 0 0 -0.181504 -0.282975 -0.148998 -0.0199983 0 0 -1.10175 0 0 
127 1 127 0.219987 0.059956 0 0 -0.242132 -0.2632 -0.16212 -0.0355308 0 0 -1.55318 0 0 
128 1 128 0.219971 0.0999334 0 0 -0.276547 -0.265478 -0.173909 -0.0518004 0 0 -0.0469204 0 0 
129 1 129 0.219942 0.139912 0 0 -0.309033 -0.276587 -0.187917 -0.0805345 0 0 1.19251 0 0 
130 1 130 0.219901 0.179892 0 0 -0.348351 -0.283146 -0.202663 -0.100553 0 0 1.94867 0 0 
131 1 131 0.219854 0.219875 0 0 -0.388548 -0.271074 -0.211704 -0.10613 0 0 2.18861 0 0 
132 1 132 0.219807 0.259864 0 0 -0.440597 -0.266137 -0.226852 -0.106427 0 0 1.79694 0 0 
133 1 133 0.219765 0.299858 0 0 -0.481456 -0.234808 -0.229917 -0.0995617 0 0 1.19897 0 0 
134 1 134 0.219729 0.33986 0 0 -0.532144 -0.234328 -0.246065 -0.0907598 0 0 0.503629 0 0 
135 1 135 0.219699 0.379866 0 0 -0.558285 -0.196696 -0.242369 -0.0818224 0 0 -0.129787 0 0 
136 1 136 0.219674 0.419878 0 0 -0.599661 -0.206838 -0.258942 -0.0726418 0 0 -0.689405 0 0 
137 1 137 0.219653 0.459893 0 0 -0.612476 -0.168632 -0.250773 -0.0659458 0 0 -1.13466 0 0 
138 1 138 0.219633 0.499914 0 0 -0.646878 -0.182988 -0.26646 -0.0583456 0 0 -1.59342 0 0 
139 1 139 0.219612 0.539936 0 0 -0.656574 -0.145868 -0.257636 -0.0552778 0 0 -1.94281 0 0 
140 1 140 0.21959 0.579964 0 0 -0.688686 -0.153085 -0.270291 -0.048401 0 0 -2.48023 0 0 
141 1 141 0.219565 0.619995 0 0 -0.704698 -0.119653 -0.264685 -0.0497083 0 0 -2.80018 0 0 
142 1 142 0.219536 0.660031 0 0 -0.73507 -0.112538 -0.272169 -0.040982 0 0 -3.45219 0 0 
143 1 143 0.219502 0.700072 0 0 -0.754989 -0.0841282 -0.269436 -0.0451159 0 0 -3.56203 0 0 
144 1 144 0.219466 0.740118 0 0 -0.78093 -0.0729277 -0.27418 -0.031473 0 0 -3.95375 0 0 
145 1 145 0.21943 0.780168 0 0 -0.786486 -0.0462545 -0.267384 -0.0290469 0 0 -3.52495 0 0 
146 1 146 0.219396 0.820221 0 0 -0.797097 -0.0497932 -0.271937 -0.0187755 0 0 -2.74441 0 0 
147 1 147 0.21937 0.860274 0 0 -0.782945 -0.0242896 -0.259177 0.00336602 0 0 -2.24887 0 0 
148 1 148 0.219352 0.900329 0 0 -0.772025 -0.0434569 -0.261831 -0.00563654 0 0 -0.563157 0 0 
149 1 149 0.219339 0.940381 0 0 -0.725363 0.00193177 -0.232221 0.00845895 0 0 -0.567601 0 0 
150 1 150 0.219333 0.980436 0 0 -0.717287 -0.0267902 -0.238861 0.0198106 0 0 -1.39061 0 0 
151 1 151 0.259987 0.0199816 0 0 -0.22007 -0.330252 -0.176574 -0.0564566 0 0 -1.34313 0 0 
152 1 152 0.259964 0.0599516 0 0 -0.294102 -0.28413 -0.185543 -0.0513987 0 0 -2.21803 0 0 
153 1 153 0.259942 0.0999303 0 0 -0.337118 -0.281749 -0.198603 -0.0584853 0 0 -1.06266 0 0 
154 1 154 0.25991 0.139911 0 0 -0.361766 -0.28988 -0.20914 -0.0861694 0 0 0.217845 0 0 
155 1 155 0.259864 0.179892 0 0 -0.384897 -0.298492 -0.219345 -0.105016 0 0 1.4242 0 0 
156 1 156 0.259811 0.219875 0 0 -0.409751 -0.289727 -0.224519 -0.112132 0 0 2.06488 0 0 
157 1 157 0.259757 0.259861 0 0 -0.449293 -0.285972 -0.236028 -0.112808 0 0 2.00025 0 0 
158 1 158 0.259706 0.299853 0 0 -0.478556 -0.248865 -0.233505 -0.10459 0 0 1.63894 0 0 
159 1 159 0.259663 0.339852 0 0 -0.522335 -0.242798 -0.245634 -0.0943929 0 0 1.03285 0 0 
160 1 160 0.259626 0.379857 0 0 -0.542488 -0.195206 -0.236808 -0.0840155 0 0 0.418249 0 0 
161 1 161 0.259595 0.419869 0 0 -0.580065 -0.196377 -0.249272 -0.0737995 0 0 -0.187709 0 0 
162 1 162 0.259568 0.459885 0 0 -0.590841 -0.150262 -0.237904 -0.0672848 0 0 -0.701772 0 0 
163 1 163 0.259543 0.499907 0 0 -0.622506 -0.153874 -0.249251 -0.0602135 0 0 -1.27121 0 0 
164 1 164 0.259518 0.539933 0 0 -0.633815 -0.114481 -0.240218 -0.0593243 0 0 -1.7251 0 0 
165 1 165 0.259492 0.579965 0 0 -0.662821 -0.110099 -0.248138 -0.0540452 0 0 -2.41697 0 0 
166 1 166 0.259461 0.62 0 0 -0.681619 -0.0803339 -0.24461 -0.0589465 0 0 -2.8319 0 0 
167 1 167 0.259426 0.660042 0 0 -0.708287 -0.06606 -0.248597 -0.0517826 0 0 -3.6156 0 0 
168 1 168 0.259388 0.700087 0 0 -0.728181 -0.0474615 -0.249014 -0.0583809 0 0 -3.7546 0 0 
169 1 169 0.259347 0.740136 0 0 -0.746144 -0.0378846 -0.251711 -0.047273 0 0 -4.07103 0 0 
170 1 170 0.259309 0.780188 0 0 -0.75065 -0.0279761 -0.249973 -0.0418647 0 0 -3.77199 0 0 
171 1 171 0.259275 0.82024 0 0 -0.752532 -0.0440773 -0.255759 -0.0349924 0 0 -2.85785 0 0 
172 1 172 0.259251 0.86029 0 0 -0.727176 -0.0175538 -0.239071 -0.0106003 0 0 -2.51659 0 0 
173 1 173 0.259235 0.900341 0 0 -0.734644 -0.0609712 -0.25544 -0.0153635 0 0 -1.36359 0 0 
174 1 174 0.259224 0.94039 0 0 -0.700967 0.00475487 -0.223468 -0.00482589 0 0 -1.7183 0 0 
175 1 175 0.259219 0.980444 0 0 -0.719354 -0.0193115 -0.23712 0.000646449 0 0 -2.45564 0 0 
176 1 176 0.299976 0.0199799 0 0 -0.240642 -0.361503 -0.193228 -0.100937 0 0 -1.32646 0 0 
177 1 177 0.299937 0.0599481 0 0 -0.317096 -0.296262 -0.196832 -0.0737943 0 0 -2.44275 0 0 
178 1 178 0.299907 0.0999274 0 0 -0.362501 -0.283245 -0.207243 -0.0677112 0 0 -1.79173 0 0 
179 1 179 0.299872 0.13991 0 0 -0.377614 -0.278113 -0.210451 -0.0897659 0 0 -0.641248 0 0 
180 1 180 0.299824 0.179894 0 0 -0.387559 -0.289551 -0.217326 -0.10661 0 0 0.858985 0 0 
181 1 181 0.299768 0.219878 0 0 -0.393994 -0.282331 -0.217074 -0.116109 0 0 1.8857 0 0 
182 1 182 0.299709 0.259864 0 0 -0.417715 -0.280569 -0.224135 -0.117971 0 0 2.21997 0 0 
183 1 183 0.299652 0.299854 0 0 -0.43595 -0.242108 -0.217631 -0.11 0 0 2.14583 0 0 
184 1 184 0.299601 0.33985 0 0 -0.474827 -0.233513 -0.227368 -0.0993486 0 0 1.69017 0 0 
185 1 185 0.299557 0.379853 0 0 -0.494119 -0.181084 -0.216713 -0.0880218 0 0 1.15309 0 0 
186 1 186 0.29952 0.419864 0 0 -0.533543 -0.175917 -0.227728 -0.0769849 0 0 0.533751 0 0 
187 1 187 0.299487 0.459881 0 0 -0.549508 -0.126798 -0.217067 -0.0706624 0 0 -0.0287977 0 0 
188 1 188 0.299457 0.499904 0 0 -0.583882 -0.121243 -0.226334 -0.0638936 0 0 -0.708791 0 0 
189 1 189 0.299427 0.539933 0 0 -0.602695 -0.0836967 -0.22031 -0.06498 0 0 -1.26606 0 0 
190 1 190 0.299394 0.579967 0 0 -0.632599 -0.0695927 -0.22539 -0.0608843 0 0 -2.10552 0 0 
191 1 191 0.299359 0.620007 0 0 -0.657754 -0.047236 -0.22629 -0.0683247 0 0 -2.60649 0 0 
192 1 192 0.299318 0.660052 0 0 -0.681336 -0.0279633 -0.227675 -0.0622753 0 0 -3.45944 0 0 
193 1 193 0.299276 0.700101 0 0 -0.701694 -0.0207031 -0.231887 -0.0686775 0 0 -3.64671 0 0 
194 1 194 0.299232 0.740152 0 0 -0.712787 -0.0179793 -0.234579 -0.0582609 0 0 -3.87336 0 0 
195 1 195 0.299194 0.780203 0 0 -0.707807 -0.0137372 -0.231613 -0.0495491 0 0 -3.60825 0 0 
196 1 196 0.299161 0.820252 0 0 -0.712733 -0.0504756 -0.245015 -0.0422396 0 0 -2.75174 0 0 
197 1 197 0.299139 0.860299 0 0 -0.687397 -0.0188289 -0.226688 -0.018687 0 0 -2.66877 0 0 
198 1 198 0.299125 0.900346 0 0 -0.705908 -0.0685689 -0.24864 -0.0235201 0 0 -1.93925 0 0 
199 1 199 0.299112 0.940392 0 0 -0.689323 -0.00223231 -0.22197 -0.0177368 0 0 -2.48043 0 0 
200 1 200 0.299104 0.980446 0 0 -0.729791 -0.02449 -0.242142 -0.0115659 0 0 -3.12514 0 0 
201 1 201 0.339966 0.0199792 0 0 -0.237062 -0.371001 -0.19513 -0.143194 0 0 -0.894104 0 0 
202 1 202 0.33991 0.0599459 0 0 -0.304555 -0.296116 -0.192754 -0.0959118 0 0 -1.8716 0 0 
203 1 203 0.339871 0.0999252 0 0 -0.355228 -0.273421 -0.201746 -0.0767688 0 0 -1.8913 0 0 
204 1 204 0.339832 0.13991 0 0 -0.366878 -0.251675 -0.1985 -0.0900072 0 0 -1.08382 0 0 
205 1 205 0.339784 0.179897 0 0 -0.368261 -0.264798 -0.203163 -0.102962 0 0 0.559392 0 0 
206 1 206 0.339728 0.219882 0 0 -0.358811 -0.257119 -0.197658 -0.115301 0 0 1.87375 0 0 
207 1 207 0.339666 0.259869 0 0 -0.369851 -0.260863 -0.20241 -0.120042 0 0 2.55305 0 0 
208 1 208 0.339604 0.299858 0 0 -0.377549 -0.224441 -0.193178 -0.114419 0 0 2.72073 0 0 
209 1 209 0.339547 0.339853 0 0 -0.409602 -0.214279 -0.200214 -0.104902 0 0 2.34031 0 0 
210 1 210 0.339496 0.379854 0 0 -0.426955 -0.160009 -0.188348 -0.0938724 0 0 1.75626 0 0 
211 1 211 0.339451 0.419864 0 0 -0.465339 -0.146894 -0.19647 -0.0827548 0 0 0.973561 0 0 
212 1 212 0.339412 0.45988 0 0 -0.486167 -0.0967637 -0.187052 -0.0770114 0 0 0.222887 0 0 
213 1 213 0.339376 0.499905 0 0 -0.522177 -0.0805547 -0.193415 -0.0706121 0 0 -0.676986 0 0 
214 1 214 0.339339 0.539935 0 0 -0.549245 -0.0465412 -0.191183 -0.0733146 0 0 -1.40468 0 0 
215 1 215 0.3393 0.579972 0 0 -0.579809 -0.0234346 -0.19358 -0.0697611 0 0 -2.40958 0 0 
216 1 216 0.339259 0.620015 0 0 -0.60997 -0.00812224 -0.198352 -0.0782621 0 0 -2.99246 0 0 
217 1 217 0.339213 0.660063 0 0 -0.630976 0.0114355 -0.198817 -0.0717831 0 0 -3.86203 0 0 
218 1 218 0.339168 0.700113 0 0 -0.647406 0.0125076 -0.203754 -0.0762519 0 0 -4.01646 0 0 
219 1 219 0.339123 0.740164 0 0 -0.656625 0.00142682 -0.21028 -0.0646539 0 0 -4.10606 0 0 
220 1 220 0.339085 0.780214 0 0 -0.644402 0.00481999 -0.20526 -0.0516326 0 0 -3.87286 0 0 
221 1 221 0.339055 0.82026 0 0 -0.649901 -0.0444508 -0.22287 -0.0453856 0 0 -3.03216 0 0 
222 1 222 0.339034 0.860303 0 0 -0.629041 -0.0104676 -0.205237 -0.0244268 0 0 -3.24459 0 0 
223 1 223 0.339019 0.900348 0 0 -0.659016 -0.0561375 -0.229559 -0.0287709 0 0 -3.19194 0 0 
224 1 224 0.339004 0.940393 0 0 -0.652399 0.00542302 -0.207637 -0.0316713 0 0 -3.82377 0 0 
225 1 225 0.338991 0.980445 0 0 -0.693248 -0.0129195 -0.226668 -0.0256482 0 0 -4.15062 0 0 
226 1 226 0.379958 0.0199798 0 0 -0.207528 -0.352318 -0.179634 -0.175355 0 0 -0.156722 0 0 
227 1 227 0.379887 0.0599461 0 0 -0.255566 -0.281778 -0.172404 -0.117996 0 0 -0.717669 0 0 
228 1 228 0.379837 0.0999246 0 0 -0.309418 -0.252145 -0.180185 -0.0895032 0 0 -1.47018 0 0 
229 1 229 0.379794 0.139911 0 0 -0.32255 -0.212053 -0.171522 -0.0901658 0 0 -1.16348 0 0 
230 1 230 0.379747 0.179901 0 0 -0.325827 -0.226969 -0.177368 -0.0970797 0 0 0.341757 0 0 
231 1 231 0.379692 0.219889 0 0 -0.309812 -0.21895 -0.169646 -0.112078 0 0 1.71779 0 0 
232 1 232 0.37963 0.259877 0 0 -0.315214 -0.231749 -0.175494 -0.120332 0 0 2.63332 0 0 
233 1 233 0.379564 0.299865 0 0 -0.318467 -0.202277 -0.167071 -0.118821 0 0 2.98761 0 0 
234 1 234 0.379501 0.339859 0 0 -0.350133 -0.19529 -0.175 -0.112203 0 0 2.66814 0 0 
235 1 235 0.379443 0.379859 0 0 -0.374219 -0.146893 -0.167189 -0.102797 0 0 2.04962 0 0 
236 1 236 0.379391 0.419867 0 0 -0.418416 -0.128903 -0.175609 -0.0923079 0 0 1.1189 0 0 
237 1 237 0.379344 0.459883 0 0 -0.45131 -0.0834243 -0.171565 -0.0872418 0 0 0.179694 0 0 
238 1 238 0.3793 0.499908 0 0 -0.491965 -0.0575976 -0.176329 -0.0807896 0 0 -0.962218 0 0 
239 1 239 0.379256 0.53994 0 0 -0.528054 -0.0280825 -0.178442 -0.0842928 0 0 -1.88936 0 0 
240 1 240 0.37921 0.579979 0 0 -0.559085 0.00182069 -0.178804 -0.080178 0 0 -3.06577 0 0 
241 1 241 0.379162 0.620024 0 0 -0.59091 0.0129036 -0.185469 -0.088392 0 0 -3.69154 0 0 
242 1 242 0.379112 0.660073 0 0 -0.610557 0.0273689 -0.187134 -0.0801674 0 0 -4.48989 0 0 
243 1 243 0.379064 0.700124 0 0 -0.62061 0.0264861 -0.190648 -0.0808728 0 0 -4.52575 0 0 
244 1 244 0.37902 0.740174 0 0 -0.627848 0.00133311 -0.20106 -0.0681176 0 0 -4.35485 0 0 
245 1 245 0.378984 0.780221 0 0 -0.610288 0.0066734 -0.193699 -0.0505982 0 0 -4.13442 0 0 
246 1 246 0.378957 0.820265 0 0 -0.619048 -0.0483954 -0.214218 -0.0455696 0 0 -3.38386 0 0 
247 1 247 0.378936 0.860306 0 0 -0.603146 -0.0117271 -0.197318 -0.0312141 0 0 -3.76242 0 0 
248 1 248 0.378919 0.900349 0 0 -0.637545 -0.0464954 -0.219554 -0.0343383 0 0 -4.21648 0 0 
249 1 249 0.3789 0.940394 0 0 -0.638943 0.000999017 -0.204733 -0.0407917 0 0 -4.77597 0 0 
250 1 250 0.378883 0.980443 0 0 -0.671542 -0.0143152 -0.220137 -0.0340061 0 0 -4.56429 0 0 
251 1 251 0.419954 0.0199817 0 0 -0.160232 -0.308509 -0.150366 -0.191653 0 0 0.823583 0 0 
252 1 252 0.419872 0.0599489 0 0 -0.189 -0.259865 -0.143982 -0.138227 0 0 0.987693 0 0 
253 1 253 0.41981 0.0999261 0 0 -0.248253 -0.229635 -0.153303 -0.1063 0 0 -0.424607 0 0 
254 1 254 0.419761 0.139913 0 0 -0.270546 -0.175234 -0.142991 -0.0926146 0 0 -0.798434 0 0 
255 1 255 0.419714 0.179905 0 0 -0.284925 -0.19161 -0.152868 -0.0920228 0 0 0.177385 0 0 
256 1 256 0.419661 0.219896 0 0 -0.270169 -0.181497 -0.144881 -0.10833 0 0 1.29213 0 0 
257 1 257 0.419599 0.259886 0 0 -0.276493 -0.204748 -0.154381 -0.120032 0 0 2.22867 0 0 
258 1 258 0.419531 0.299875 0 0 -0.27949 -0.185068 -0.149023 -0.124077 0 0 2.61947 0 0 
259 1 259 0.419462 0.339869 0 0 -0.310901 -0.182344 -0.158237 -0.121719 0 0 2.25488 0 0 
260 1 260 0.419397 0.379867 0 0 -0.340159 -0.142344 -0.154786 -0.11498 0 0 1.49298 0 0 
261 1 261 0.419336 0.419874 0 0 -0.385606 -0.117607 -0.161439 -0.105642 0 0 0.307249 0 0 
262 1 262 0.419279 0.459889 0 0 -0.427691 -0.0774389 -0.162055 -0.101242 0 0 -0.886155 0 0 
263 1 263 0.419226 0.499913 0 0 -0.471142 -0.0418271 -0.164573 -0.0942104 0 0 -2.26351 0 0 
264 1 264 0.419173 0.539946 0 0 -0.515348 -0.0163437 -0.170587 -0.0975908 0 0 -3.29992 0 0 
265 1 265 0.41912 0.579987 0 0 -0.547919 0.0165735 -0.170476 -0.0915065 0 0 -4.50491 0 0 
266 1 266 0.419066 0.620033 0 0 -0.577519 0.0268951 -0.17667 -0.0974824 0 0 -5.03322 0 0 
267 1 267 0.419013 0.660083 0 0 -0.592793 0.0339192 -0.17932 -0.0862075 0 0 -5.63409 0 0 
268 1 268 0.418964 0.700133 0 0 -0.589558 0.0371594 -0.17724 -0.0814149 0 0 -5.52935 0 0 
269 1 269 0.418922 0.740182 0 0 -0.590268 0.00179254 -0.188833 -0.0676401 0 0 -5.1173 0 0 
270 1 270 0.418889 0.780226 0 0 -0.563821 0.0142779 -0.176323 -0.04758 0 0 -4.9321 0 0 
271 1 271 0.418864 0.820268 0 0 -0.572102 -0.0370737 -0.195487 -0.0446294 0 0 -4.3524 0 0 
272 1 272 0.418843 0.860307 0 0 -0.56278 -0.00107246 -0.180921 -0.0387693 0 0 -4.85916 0 0 
273 1 273 0.418822 0.900351 0 0 -0.595942 -0.0199887 -0.197658 -0.0407312 0 0 -5.66619 0 0 
274 1 274 0.4188 0.940395 0 0 -0.599574 0.00929327 -0.189414 -0.0457778 0 0 -6.0234 0 0 
275 1 275 0.41878 0.980442 0 0 -0.615813 -0.00442305 -0.199041 -0.0380442 0 0 -5.12033 0 0 
276 1 276 0.459954 0.0199846 0 0 -0.103302 -0.247331 -0.112443 -0.190662 0 0 1.67728 0 0 
277 1 277 0.459867 0.0599538 0 0 -0.112312 -0.23056 -0.109952 -0.157037 0 0 2.51462 0 0 
278 1 278 0.459793 0.0999298 0 0 -0.174021 -0.204825 -0.121499 -0.129552 0 0 0.639319 0 0 
279 1 279 0.459734 0.139916 0 0 -0.212206 -0.144921 -0.114527 -0.102286 0 0 -0.386548 0 0 
280 1 280 0.459684 0.179909 0 0 -0.249503 -0.16358 -0.132491 -0.093357 0 0 -0.157531 0 0 
281 1 281 0.459632 0.219902 0 0 -0.249472 -0.152256 -0.128846 -0.108442 0 0 0.489937 0 0 
282 1 282 0.45957 0.259895 0 0 -0.266611 -0.186972 -0.145497 -0.122132 0 0 1.29946 0 0 
283 1 283 0.4595 0.299886 0 0 -0.275694 -0.17927 -0.145941 -0.131754 0 0 1.65719 0 0 
284 1 284 0.459426 0.33988 0 0 -0.310857 -0.183003 -0.158434 -0.134097 0 0 1.27397 0 0 
285 1 285 0.459352 0.379877 0 0 -0.350153 -0.156302 -0.16248 -0.130645 0 0 0.459404 0 0 
286 1 286 0.459282 0.419883 0 0 -0.40064 -0.12768 -0.169505 -0.122627 0 0 -0.854727 0 0 
287 1 287 0.459215 0.459897 0 0 -0.454152 -0.0954776 -0.176351 -0.118421 0 0 -2.18455 0 0 
288 1 288 0.459151 0.499922 0 0 -0.499022 -0.0514743 -0.176629 -0.109604 0 0 -3.73254 0 0 
289 1 289 0.45909 0.539955 0 0 -0.543998 -0.0261368 -0.18294 -0.111231 0 0 -4.86503 0 0 
290 1 290 0.459029 0.579996 0 0 -0.571125 0.00909569 -0.180335 -0.101486 0 0 -6.09976 0 0 
291 1 291 0.458971 0.620043 0 0 -0.589618 0.0244179 -0.181354 -0.103405 0 0 -6.51531 0 0 
292 1 292 0.458915 0.660092 0 0 -0.598988 0.0220103 -0.185138 -0.088509 0 0 -6.82169 0 0 
293 1 293 0.458868 0.700141 0 0 -0.583967 0.0310932 -0.177393 -0.0778684 0 0 -6.46189 0 0 
294 1 294 0.458828 0.740188 0 0 -0.583283 -0.0127888 -0.191275 -0.0639772 0 0 -5.70259 0 0 
295 1 295 0.458799 0.780229 0 0 -0.556074 0.00455814 -0.176957 -0.0434875 0 0 -5.48382 0 0 
296 1 296 0.458776 0.82027 0 0 -0.564033 -0.0352822 -0.192318 -0.0429867 0 0 -5.09945 0 0 
297 1 297 0.458753 0.860309 0 0 -0.558814 -0.0028281 -0.180211 -0.04575 0 0 -5.66228 0 0 
298 1 298 0.458728 0.900353 0 0 -0.581209 -0.00382059 -0.187726 -0.0454295 0 0 -6.6553 0 0 
299 1 299 0.458705 0.940397 0 0 -0.579767 0.00877672 -0.183214 -0.0434793 0 0 -6.84155 0 0 
300 1 300 0.458685 0.980442 0 0 -0.577546 -0.00530329 -0.187025 -0.0354735 0 0 -5.34938 0 0 
301 1 301 0.499958 0.0199877 0 0 -0.0580727 -0.187892 -0.0788556 -0.17619 0 0 2.24525 0 0 
302 1 302 0.49987 0.0599597 0 0 -0.0607625 -0.208169 -0.0862238 -0.174694 0 0 3.66918 0 0 
303 1 303 0.499784 0.0999349 0 0 -0.123383 -0.191967 -0.101119 -0.158614 0 0 1.72211 0 0 
304 1 304 0.499714 0.139919 0 0 -0.176855 -0.135858 -0.100272 -0.121092 0 0 0.135516 0 0 
305 1 305 0.499657 0.179912 0 0 -0.235123 -0.151682 -0.124054 -0.104047 0 0 -0.632155 0 0 
306 1 306 0.499602 0.219907 0 0 -0.250825 -0.13539 -0.123865 -0.114633 0 0 -0.725867 0 0 
307 1 307 0.49954 0.259903 0 0 -0.278568 -0.175757 -0.145735 -0.12787 0 0 -0.251516 0 0 
308 1 308 0.499468 0.299896 0 0 -0.293219 -0.177359 -0.150955 -0.142048 0 0 -0.0133978 0 0 
309 1 309 0.499389 0.339891 0 0 -0.328488 -0.1853 -0.164836 -0.14866 0 0 -0.401355 0 0 
310 1 310 0.499307 0.379888 0 0 -0.370683 -0.169922 -0.173452 -0.148348 0 0 -1.23703 0 0 
311 1 311 0.499226 0.419894 0 0 -0.416277 -0.134846 -0.176831 -0.141142 0 0 -2.6588 0 0 
312 1 312 0.499148 0.459908 0 0 -0.470502 -0.106701 -0.185211 -0.136315 0 0 -4.08978 0 0 
313 1 313 0.499074 0.499932 0 0 -0.51094 -0.0553072 -0.181691 -0.124542 0 0 -5.7159 0 0 
314 1 314 0.499003 0.539966 0 0 -0.553178 -0.0281591 -0.18654 -0.123115 0 0 -6.76503 0 0 
315 1 315 0.498936 0.580007 0 0 -0.577963 0.00340474 -0.184361 -0.108491 0 0 -7.79409 0 0 
316 1 316 0.498874 0.620054 0 0 -0.585527 0.0246411 -0.179967 -0.104864 0 0 -7.91505 0 0 
317 1 317 0.498818 0.660102 0 0 -0.587943 0.0125273 -0.184636 -0.0860736 0 0 -7.85096 0 0 
318 1 318 0.498773 0.700148 0 0 -0.556687 0.0307851 -0.168727 -0.0696119 0 0 -7.35379 0 0 
319 1 319 0.498738 0.740192 0 0 -0.545881 -0.010946 -0.178663 -0.0569733 0 0 -6.4809 0 0 
320 1 320 0.498711 0.780232 0 0 -0.514865 0.0125836 -0.161139 -0.0390737 0 0 -6.41771 0 0 
321 1 321 0.49869 0.820272 0 0 -0.519919 -0.00893079 -0.169674 -0.0415154 0 0 -6.35187 0 0 
322 1 322 0.498665 0.860312 0 0 -0.523195 0.0142623 -0.163276 -0.0521609 0 0 -6.84267 0 0 
323 1 323 0.498637 0.900356 0 0 -0.541692 0.0223408 -0.166622 -0.0493632 0 0 -7.63701 0 0 
324 1 324 0.498613 0.9404 0 0 -0.54287 0.0173174 -0.168615 -0.0366315 0 0 -7.48915 0 0 
325 1 325 0.498596 0.980443 0 0 -0.533119 -0.00273173 -0.171923 -0.0285545 0 0 -5.50441 0 0 
326 1 326 0.539963 0.0199901 0 0 -0.0324549 -0.145067 -0.0569023 -0.155958 0 0 2.18698 0 0 
327 1 327 0.539878 0.0599649 0 0 -0.0330563 -0.190815 -0.0717679 -0.191037 0 0 3.73262 0 0 
328 1 328 0.539782 0.09994 0 0 -0.0875091 -0.18355 -0.0869063 -0.190586 0 0 2.14022 0 0 
329 1 329 0.539698 0.139922 0 0 -0.152517 -0.140979 -0.0941051 -0.148721 0 0 0.354351 0 0 
330 1 330 0.539631 0.179914 0 0 -0.230896 -0.150528 -0.122327 -0.12518 0 0 -1.23717 0 0 
331 1 331 0.53957 0.21991 0 0 -0.268211 -0.130011 -0.12772 -0.127838 0 0 -1.97636 0 0 