ITEM: TIMESTEP
0
ITEM: NUMBER OF ATOMS
7127
ITEM: BOX BOUNDS sm sm sm
0 4
0 2
0 0
ITEM: ATOMS id type tag x y z vx 
0 1 0 0 0 0 0 
1 1 1 0 0.04 0 0 
2 1 2 0 0.08 0 0 
3 1 3 0 0.12 0 0 
4 1 4 0 0.16 0 0 
5 1 5 0 0.2 0 0 
6 1 6 0 0.24 0 0 
7 1 7 0 0.28 0 0 
8 1 8 0 0.32 0 0 
9 1 9 0 0.36 0 0 
10 1 10 0 0.4 0 0 
11 1 11 0 0.44 0 0 
12 1 12 0 0.48 0 0 
13 1 13 0 0.52 0 0 
14 1 14 0 0.56 0 0 
15 1 15 0 0.6 0 0 
16 1 16 0 0.64 0 0 
17 1 17 0 0.68 0 0 
18 1 18 0 0.72 0 0 
19 1 19 0 0.76 0 0 
20 1 20 0 0.8 0 0 
21 1 21 0 0.84 0 0 
22 1 22 0 0.88 0 0 
23 1 23 0 0.92 0 0 
24 1 24 0 0.96 0 0 
25 1 25 0 1 0 0 
26 1 26 0.04 0 0 0 
27 1 27 0.0399958 0.039996 0 0.337232 
28 1 28 0.0399962 0.079996 0 0.455718 
29 1 29 0.0399963 0.119997 0 0.247649 
30 1 30 0.0399965 0.159998 0 -0.035325 
31 1 31 0.0399956 0.199997 0 -0.117378 
32 1 32 0.0399942 0.239996 0 -0.175153 
33 1 33 0.0399927 0.279993 0 -0.0716998 
34 1 34 0.0399884 0.319992 0 0.0955321 
35 1 35 0.0399851 0.35999 0 0.229344 
36 1 36 0.0399797 0.399991 0 0.424886 
37 1 37 0.039977 0.439991 0 0.529534 
38 1 38 0.0399739 0.479994 0 0.436535 
39 1 39 0.0399748 0.519995 0 0.387565 
40 1 40 0.0399711 0.56 0 0.248586 
41 1 41 0.0399728 0.600001 0 0.125338 
42 1 42 0.0399689 0.640007 0 0.161352 
43 1 43 0.0399661 0.680013 0 0.115964 
44 1 44 0.0399581 0.720025 0 -0.006466 
45 1 45 0.0399563 0.760034 0 0.0458098 
46 1 46 0.0399433 0.80005 0 -0.160786 
47 1 47 0.0399477 0.840058 0 -0.272503 
48 1 48 0.0399355 0.880074 0 -0.300437 
49 1 49 0.0399354 0.92008 0 -0.402861 
50 1 50 0.0399252 0.960097 0 -0.0712663 
51 1 51 0.0398468 1.00016 0 0.0679742 
52 1 52 0.08 0 0 0 
53 1 53 0.0799958 0.0399967 0 0.481063 
54 1 54 0.0799933 0.0799944 0 0.581422 
55 1 55 0.0799911 0.119993 0 0.367316 
56 1 56 0.0799914 0.159993 0 0.100519 
57 1 57 0.0799916 0.199991 0 -0.0268025 
58 1 58 0.0799898 0.239988 0 -0.236897 
59 1 59 0.0799863 0.279985 0 -0.215932 
60 1 60 0.0799779 0.319984 0 0.0204425 
61 1 61 0.0799704 0.359984 0 0.313982 
62 1 62 0.0799608 0.399987 0 0.658269 
63 1 63 0.0799545 0.439991 0 0.836409 
64 1 64 0.0799479 0.479998 0 0.743855 
65 1 65 0.0799463 0.520005 0 0.657194 
66 1 66 0.0799413 0.560013 0 0.509092 
67 1 67 0.0799401 0.600021 0 0.39545 
68 1 68 0.0799324 0.640031 0 0.431693 
69 1 69 0.0799221 0.680043 0 0.301816 
70 1 70 0.0799092 0.720058 0 0.106087 
71 1 71 0.079897 0.760078 0 -0.0120091 
72 1 72 0.0798837 0.800098 0 -0.349453 
73 1 73 0.0798792 0.840121 0 -0.607647 
74 1 74 0.0798695 0.88014 0 -0.739334 
75 1 75 0.0798617 0.920167 0 -0.816503 
76 1 76 0.079825 0.960206 0 -0.26917 
77 1 77 0.0797593 1.00023 0 0.129227 
78 1 78 0.12 0 0 0 
79 1 79 0.119996 0.0399968 0 0.451051 
80 1 80 0.119991 0.0799936 0 0.559194 
81 1 81 0.119987 0.11999 0 0.43237 
82 1 82 0.119988 0.159989 0 0.166401 
83 1 83 0.119989 0.199986 0 -0.0736295 
84 1 84 0.119985 0.239983 0 -0.38044 
85 1 85 0.11998 0.279981 0 -0.41963 
86 1 86 0.119967 0.31998 0 -0.122627 
87 1 87 0.119957 0.359983 0 0.302111 
88 1 88 0.119941 0.39999 0 0.718904 
89 1 89 0.119931 0.439998 0 0.918638 
90 1 90 0.11992 0.48001 0 0.894479 
91 1 91 0.119916 0.520023 0 0.78361 
92 1 92 0.119908 0.560037 0 0.664605 
93 1 93 0.119903 0.600049 0 0.621061 
94 1 94 0.119891 0.640065 0 0.62313 
95 1 95 0.119877 0.680081 0 0.420331 
96 1 96 0.119857 0.720101 0 0.160622 
97 1 97 0.119837 0.760124 0 -0.171029 
98 1 98 0.119819 0.800151 0 -0.615406 
99 1 99 0.11981 0.840177 0 -0.884557 
100 1 100 0.119797 0.880208 0 -1.13525 
101 1 101 0.119779 0.920241 0 -1.13795 
102 1 102 0.119743 0.960276 0 -0.410364 
103 1 103 0.119686 1.00031 0 0.0918011 
104 1 104 0.16 0 0 0 
105 1 105 0.159995 0.0399961 0 0.375266 
106 1 106 0.159988 0.0799926 0 0.522009 
107 1 107 0.159983 0.119991 0 0.420997 
108 1 108 0.159983 0.159988 0 0.0898869 
109 1 109 0.159983 0.199987 0 -0.242264 
110 1 110 0.159978 0.239985 0 -0.580435 
111 1 111 0.159972 0.279984 0 -0.661201 
112 1 112 0.159955 0.319986 0 -0.359629 
113 1 113 0.15994 0.359991 0 0.113206 
114 1 114 0.15992 0.400001 0 0.597599 
115 1 115 0.159904 0.440014 0 0.871042 
116 1 116 0.159889 0.48003 0 0.926459 
117 1 117 0.159879 0.520047 0 0.839186 
118 1 118 0.159869 0.560065 0 0.732377 
119 1 119 0.15986 0.600082 0 0.707269 
120 1 120 0.159843 0.640101 0 0.640941 
121 1 121 0.159823 0.680121 0 0.458143 
122 1 122 0.159794 0.720143 0 0.170214 
123 1 123 0.159768 0.760171 0 -0.330745 
124 1 124 0.159747 0.8002 0 -0.793738 
125 1 125 0.159734 0.840232 0 -1.09797 
126 1 126 0.159716 0.880268 0 -1.38076 
127 1 127 0.159698 0.920305 0 -1.29004 
128 1 128 0.159665 0.960341 0 -0.628229 
129 1 129 0.159615 1.00037 0 -0.222281 
130 1 130 0.2 0 0 0 
131 1 131 0.199992 0.0399957 0 0.233045 
132 1 132 0.199984 0.0799936 0 0.334455 
133 1 133 0.199978 0.119993 0 0.292924 
134 1 134 0.199977 0.159991 0 0.0622137 
135 1 135 0.199975 0.199992 0 -0.247027 
136 1 136 0.199969 0.239992 0 -0.59955 
137 1 137 0.19996 0.279994 0 -0.783813 
138 1 138 0.199941 0.319999 0 -0.607824 
139 1 139 0.19992 0.360006 0 -0.159414 
140 1 140 0.199896 0.400018 0 0.333957 
141 1 141 0.199875 0.440032 0 0.677217 
142 1 142 0.199856 0.480052 0 0.805081 
143 1 143 0.199843 0.52007 0 0.783143 
144 1 144 0.199826 0.560093 0 0.73751 
145 1 145 0.199812 0.600114 0 0.712185 
146 1 146 0.199789 0.640137 0 0.571807 
147 1 147 0.199767 0.680162 0 0.417919 
148 1 148 0.199733 0.720188 0 0.117749 
149 1 149 0.199703 0.760216 0 -0.511238 
150 1 150 0.199677 0.800246 0 -0.890431 
151 1 151 0.199657 0.840282 0 -1.24324 
152 1 152 0.199639 0.880319 0 -1.51517 
153 1 153 0.19962 0.920359 0 -1.335 
154 1 154 0.199592 0.960397 0 -0.905413 
155 1 155 0.199553 1.00043 0 -0.65122 
156 1 156 0.24 0 0 0 
157 1 157 0.239988 0.0399966 0 0.0594485 
158 1 158 0.239977 0.0799958 0 0.149016 
159 1 159 0.239969 0.119996 0 0.228673 
160 1 160 0.239966 0.159997 0 0.128497 
161 1 161 0.239963 0.2 0 -0.179764 
162 1 162 0.239955 0.240004 0 -0.532569 
163 1 163 0.239944 0.280008 0 -0.774692 
164 1 164 0.239922 0.320016 0 -0.709027 
165 1 165 0.239898 0.360025 0 -0.329154 
166 1 166 0.239869 0.400038 0 0.0539324 
167 1 167 0.239843 0.440054 0 0.361516 
168 1 168 0.239816 0.480074 0 0.570706 
169 1 169 0.239797 0.520097 0 0.655807 
170 1 170 0.239776 0.560121 0 0.67487 
171 1 171 0.239758 0.600147 0 0.661819 
172 1 172 0.23973 0.640174 0 0.469709 
173 1 173 0.239701 0.680201 0 0.268406 
174 1 174 0.239662 0.720229 0 -0.0510524 
175 1 175 0.239629 0.760258 0 -0.700455 
176 1 176 0.239601 0.80029 0 -1.01475 
177 1 177 0.239577 0.840326 0 -1.37672 
178 1 178 0.23956 0.880365 0 -1.56777 
179 1 179 0.239541 0.920405 0 -1.35773 
180 1 180 0.23952 0.960443 0 -1.17488 
181 1 181 0.239489 1.00047 0 -1.04693 
182 1 182 0.28 0 0 0 
183 1 183 0.279982 0.0399964 0 -0.199584 
184 1 184 0.279968 0.0799973 0 -0.098952 
185 1 185 0.279959 0.119999 0 0.107024 
186 1 186 0.279953 0.160003 0 0.213632 
187 1 187 0.279947 0.200008 0 0.0250348 
188 1 188 0.279938 0.240015 0 -0.252071 
189 1 189 0.279924 0.280022 0 -0.506739 
190 1 190 0.2799 0.320031 0 -0.595946 
191 1 191 0.279872 0.360043 0 -0.440558 
192 1 192 0.279839 0.400056 0 -0.185477 
193 1 193 0.279807 0.440075 0 0.145679 
194 1 194 0.279777 0.480095 0 0.403918 
195 1 195 0.279753 0.520121 0 0.581176 
196 1 196 0.279724 0.560148 0 0.584103 
197 1 197 0.279699 0.600177 0 0.481298 
198 1 198 0.279667 0.640208 0 0.223389 
199 1 199 0.279636 0.680238 0 -0.129104 
200 1 200 0.279599 0.720269 0 -0.484706 
201 1 201 0.279564 0.760298 0 -1.02109 
202 1 202 0.279533 0.80033 0 -1.30029 
203 1 203 0.279505 0.840365 0 -1.62579 
204 1 204 0.279487 0.880402 0 -1.59469 
205 1 205 0.279468 0.920441 0 -1.37445 
206 1 206 0.279451 0.96048 0 -1.44899 
207 1 207 0.279429 1.00051 0 -1.41537 
208 1 208 0.32 0 0 0 
209 1 209 0.319976 0.0399969 0 -0.447127 
210 1 210 0.319958 0.0799984 0 -0.31482 
211 1 211 0.319947 0.120001 0 0.00283399 
212 1 212 0.319937 0.160007 0 0.309864 
213 1 213 0.319928 0.200014 0 0.297237 
214 1 214 0.319917 0.240023 0 0.131967 
215 1 215 0.3199 0.280033 0 -0.124396 
216 1 216 0.319874 0.320045 0 -0.360634 
217 1 217 0.319842 0.360058 0 -0.432538 
218 1 218 0.319805 0.400074 0 -0.33904 
219 1 219 0.319768 0.440094 0 -0.0266488 
220 1 220 0.319729 0.480118 0 0.19902 
221 1 221 0.319697 0.520144 0 0.382126 
222 1 222 0.319663 0.560177 0 0.37809 
223 1 223 0.319636 0.600207 0 0.155383 
224 1 224 0.3196 0.640241 0 -0.188809 
225 1 225 0.319564 0.680273 0 -0.692109 
226 1 226 0.319526 0.720303 0 -1.13447 
227 1 227 0.319492 0.760332 0 -1.54161 
228 1 228 0.31946 0.800362 0 -1.76096 
229 1 229 0.319433 0.840396 0 -1.99944 
230 1 230 0.319414 0.880432 0 -1.72751 
231 1 231 0.319394 0.920469 0 -1.44702 
232 1 232 0.319382 0.960507 0 -1.57315 
233 1 233 0.319364 1.00054 0 -1.51863 
234 1 234 0.36 0 0 0 
235 1 235 0.35997 0.0399973 0 -0.600197 
236 1 236 0.359948 0.0799984 0 -0.476029 
237 1 237 0.359934 0.120002 0 -0.0929417 
238 1 238 0.359921 0.160009 0 0.354182 
239 1 239 0.359908 0.200016 0 0.544199 
240 1 240 0.359893 0.240028 0 0.520411 
241 1 241 0.359874 0.28004 0 0.270126 
242 1 242 0.359845 0.320053 0 -0.0436486 
243 1 243 0.359809 0.360069 0 -0.268282 
244 1 244 0.359767 0.400088 0 -0.413521 
245 1 245 0.359726 0.440109 0 -0.289925 
246 1 246 0.359683 0.480135 0 -0.0818764 
247 1 247 0.359645 0.520165 0 0.110626 
248 1 248 0.359605 0.560198 0 0.0607311 
249 1 249 0.359569 0.600234 0 -0.269271 
250 1 250 0.359531 0.640269 0 -0.781277 
251 1 251 0.359498 0.680303 0 -1.40572 
252 1 252 0.359463 0.720334 0 -1.85889 
253 1 253 0.359432 0.760362 0 -2.20935 
254 1 254 0.359399 0.800391 0 -2.34437 
255 1 255 0.359371 0.840421 0 -2.36378 
256 1 256 0.359349 0.880455 0 -1.88481 
257 1 257 0.359327 0.92049 0 -1.58578 
258 1 258 0.359315 0.960528 0 -1.67383 
259 1 259 0.359297 1.00056 0 -1.55375 
260 1 260 0.4 0 0 0 
261 1 261 0.399965 0.0399973 0 -0.607279 
262 1 262 0.399939 0.079998 0 -0.534692 
263 1 263 0.399921 0.120002 0 -0.1291 
264 1 264 0.399903 0.160009 0 0.402758 
265 1 265 0.399886 0.200018 0 0.742574 
266 1 266 0.399867 0.24003 0 0.828671 
267 1 267 0.399843 0.280044 0 0.608362 
268 1 268 0.399812 0.320061 0 0.191285 
269 1 269 0.399774 0.360079 0 -0.25529 
270 1 270 0.399728 0.400099 0 -0.547557 
271 1 271 0.399681 0.440123 0 -0.540825 
272 1 272 0.399629 0.480151 0 -0.370748 
273 1 273 0.399582 0.520184 0 -0.235014 
274 1 274 0.399537 0.560218 0 -0.427701 
275 1 275 0.3995 0.600255 0 -0.825307 
276 1 276 0.399459 0.640291 0 -1.41047 
277 1 277 0.399424 0.680323 0 -2.12683 
278 1 278 0.399391 0.720354 0 -2.57206 
279 1 279 0.399361 0.760383 0 -2.90103 
280 1 280 0.399331 0.800412 0 -2.98682 
281 1 281 0.399304 0.840441 0 -2.77231 
282 1 282 0.39928 0.880474 0 -2.13651 
283 1 283 0.399258 0.920507 0 -1.77455 
284 1 284 0.399245 0.960543 0 -1.6819 
285 1 285 0.399225 1.00058 0 -1.45143 
286 1 286 0.44 0 0 0 
287 1 287 0.439961 0.0399972 0 -0.384197 
288 1 288 0.43993 0.0799977 0 -0.396496 
289 1 289 0.439906 0.120001 0 -0.108426 
290 1 290 0.439884 0.160008 0 0.38674 
291 1 291 0.439863 0.200018 0 0.803798 
292 1 292 0.43984 0.240032 0 0.969474 
293 1 293 0.439812 0.280047 0 0.785192 
294 1 294 0.439778 0.320066 0 0.343748 
295 1 295 0.439736 0.360086 0 -0.245442 
296 1 296 0.439685 0.400108 0 -0.658441 
297 1 297 0.439633 0.440134 0 -0.81251 
298 1 298 0.439579 0.480164 0 -0.790197 
299 1 299 0.439528 0.520196 0 -0.695748 
300 1 300 0.439475 0.560232 0 -0.878495 
301 1 301 0.43943 0.600269 0 -1.31602 
302 1 302 0.43939 0.640305 0 -1.96409 
303 1 303 0.439359 0.68034 0 -2.70875 
304 1 304 0.439329 0.720371 0 -3.1866 
305 1 305 0.439302 0.7604 0 -3.46775 
306 1 306 0.439272 0.800429 0 -3.42067 
307 1 307 0.439244 0.840457 0 -3.04475 
308 1 308 0.439218 0.88049 0 -2.36936 
309 1 309 0.439195 0.920521 0 -1.94436 
310 1 310 0.439176 0.960556 0 -1.65204 
311 1 311 0.439154 1.00059 0 -1.32574 
312 1 312 0.48 0 0 0 
313 1 313 0.479957 0.0399976 0 -0.0191588 
314 1 314 0.479921 0.0799976 0 -0.074557 
315 1 315 0.479892 0.12 0 0.0600024 
316 1 316 0.479864 0.160008 0 0.431406 
317 1 317 0.479838 0.200019 0 0.821077 
318 1 318 0.479809 0.240034 0 1.00641 
319 1 319 0.479776 0.280051 0 0.778736 
320 1 320 0.479738 0.320072 0 0.301286 
321 1 321 0.479694 0.360095 0 -0.314395 
322 1 322 0.479641 0.400119 0 -0.7964 
323 1 323 0.479584 0.440146 0 -1.05337 
324 1 324 0.479521 0.480177 0 -1.12103 
325 1 325 0.479461 0.52021 0 -1.12063 
326 1 326 0.479407 0.560245 0 -1.31255 
327 1 327 0.479361 0.60028 0 -1.76078 
328 1 328 0.479318 0.640313 0 -2.41803 
329 1 329 0.479284 0.680346 0 -3.09783 
330 1 330 0.479253 0.720378 0 -3.57596 
331 1 331 0.479227 0.760408 0 -3.81549 
332 1 332 0.479201 0.800439 0 -3.64187 
333 1 333 0.479173 0.840469 0 -3.18867 
334 1 334 0.479148 0.880502 0 -2.53275 
335 1 335 0.479125 0.920533 0 -2.04578 
336 1 336 0.479104 0.960568 0 -1.62324 
337 1 337 0.479082 1.0006 0 -1.25861 
338 1 338 0.52 0 0 0 
339 1 339 0.519955 0.0399969 0 0.42073 
340 1 340 0.519913 0.0799966 0 0.339996 
341 1 341 0.519876 0.12 0 0.281343 
342 1 342 0.519842 0.160008 0 0.476639 
343 1 343 0.519811 0.20002 0 0.753092 
344 1 344 0.519776 0.240035 0 0.888527 
345 1 345 0.519739 0.280054 0 0.664873 
346 1 346 0.519698 0.320076 0 0.20942 
347 1 347 0.519651 0.3601 0 -0.363657 
348 1 348 0.519593 0.400127 0 -0.861208 
349 1 349 0.519532 0.440155 0 -1.24224 
350 1 350 0.519467 0.480185 0 -1.38949 
351 1 351 0.519406 0.520217 0 -1.48544 
352 1 352 0.519346 0.560251 0 -1.72182 
353 1 353 0.519293 0.600285 0 -2.14137 
354 1 354 0.51925 0.640319 0 -2.73032 
355 1 355 0.519218 0.680351 0 -3.33326 
356 1 356 0.51919 0.720383 0 -3.80343 
357 1 357 0.519164 0.760414 0 -3.97827 
358 1 358 0.519136 0.800446 0 -3.71323 
359 1 359 0.519107 0.840478 0 -3.22419 
360 1 360 0.519083 0.880512 0 -2.56588 
361 1 361 0.519058 0.920544 0 -2.04374 
362 1 362 0.519035 0.960578 0 -1.60064 
363 1 363 0.519014 1.00061 0 -1.25071 
364 1 364 0.56 0 0 0 
365 1 365 0.559949 0.0399958 0 0.735929 
366 1 366 0.559902 0.0799954 0 0.695794 
367 1 367 0.55986 0.119999 0 0.501342 
368 1 368 0.55982 0.160007 0 0.537966 
369 1 369 0.559782 0.200019 0 0.723423 
370 1 370 0.559741 0.240035 0 0.768839 
371 1 371 0.559699 0.280055 0 0.532804 
372 1 372 0.559651 0.320079 0 0.122642 
373 1 373 0.5596 0.360104 0 -0.430933 
374 1 374 0.55954 0.400132 0 -0.877317 
375 1 375 0.559476 0.440161 0 -1.25922 
376 1 376 0.559405 0.480192 0 -1.5063 
377 1 377 0.559337 0.520224 0 -1.76569 
378 1 378 0.559277 0.560256 0 -2.087 
379 1 379 0.559225 0.600287 0 -2.49672 
380 1 380 0.55918 0.640318 0 -3.00075 
381 1 381 0.559142 0.680348 0 -3.49752 
382 1 382 0.559109 0.720381 0 -3.89105 
383 1 383 0.559082 0.760413 0 -3.93676 
384 1 384 0.559055 0.800449 0 -3.56584 
385 1 385 0.559028 0.840483 0 -3.07578 
386 1 386 0.559007 0.880518 0 -2.46604 
387 1 387 0.558983 0.920551 0 -1.99698 
388 1 388 0.558963 0.960586 0 -1.63207 
389 1 389 0.558947 1.00062 0 -1.32481 
390 1 390 0.6 0 0 0 
391 1 391 0.599946 0.0399944 0 0.91129 
392 1 392 0.599892 0.0799929 0 0.977629 
393 1 393 0.599841 0.119996 0 0.730399 
394 1 394 0.599795 0.160004 0 0.631348 
395 1 395 0.599752 0.200016 0 0.698189 
396 1 396 0.599704 0.240032 0 0.615284 
397 1 397 0.599656 0.280052 0 0.351726 
398 1 398 0.599605 0.320075 0 0.0797997 
399 1 399 0.59955 0.360101 0 -0.323761 
400 1 400 0.599486 0.40013 0 -0.736817 
401 1 401 0.599418 0.440159 0 -1.18059 
402 1 402 0.599348 0.48019 0 -1.58165 
403 1 403 0.599281 0.520221 0 -2.02683 
404 1 404 0.599215 0.560251 0 -2.42158 
405 1 405 0.599159 0.600283 0 -2.83238 
406 1 406 0.599113 0.640314 0 -3.27092 
407 1 407 0.599077 0.680345 0 -3.67025 
408 1 408 0.599044 0.720379 0 -3.95425 
409 1 409 0.599013 0.760412 0 -3.88482 
410 1 410 0.598984 0.800449 0 -3.42473 
411 1 411 0.598957 0.840484 0 -2.88573 
412 1 412 0.598937 0.88052 0 -2.30808 
413 1 413 0.598913 0.920555 0 -1.93754 
414 1 414 0.598895 0.96059 0 -1.69544 
415 1 415 0.598885 1.00062 0 -1.43822 
416 1 416 0.64 0 0 0 
417 1 417 0.639938 0.0399926 0 0.86657 
418 1 418 0.63988 0.0799893 0 1.01107 
419 1 419 0.639823 0.119992 0 0.813776 
420 1 420 0.639771 0.159998 0 0.67047 
421 1 421 0.639721 0.200009 0 0.656941 
422 1 422 0.639667 0.240025 0 0.548957 
423 1 423 0.639612 0.280045 0 0.346827 
424 1 424 0.639554 0.320069 0 0.147328 
425 1 425 0.639494 0.360095 0 -0.143256 
426 1 426 0.639427 0.400124 0 -0.486091 
427 1 427 0.639356 0.440153 0 -1.0133 
428 1 428 0.639281 0.480184 0 -1.58614 
429 1 429 0.639209 0.520215 0 -2.21214 
430 1 430 0.639146 0.560245 0 -2.72993 
431 1 431 0.639092 0.600274 0 -3.17571 
432 1 432 0.639043 0.640303 0 -3.55131 
433 1 433 0.638998 0.680333 0 -3.82673 
434 1 434 0.638959 0.720367 0 -3.93934 
435 1 435 0.638925 0.760403 0 -3.77305 
436 1 436 0.638898 0.800442 0 -3.27027 
437 1 437 0.638873 0.840479 0 -2.7164 
438 1 438 0.638856 0.880517 0 -2.23052 
439 1 439 0.638835 0.920553 0 -1.96022 
440 1 440 0.638825 0.960587 0 -1.80502 
441 1 441 0.638822 1.00062 0 -1.58792 
442 1 442 0.68 0 0 0 
443 1 443 0.679935 0.03999 0 0.6387 
444 1 444 0.679868 0.0799853 0 0.872351 
445 1 445 0.679803 0.119985 0 0.82556 
446 1 446 0.679745 0.15999 0 0.728973 
447 1 447 0.679689 0.2 0 0.653747 
448 1 448 0.679628 0.240015 0 0.503261 
449 1 449 0.679568 0.280034 0 0.377416 
450 1 450 0.679503 0.320057 0 0.246728 
451 1 451 0.679439 0.360083 0 0.0207863 
452 1 452 0.679368 0.400112 0 -0.22926 
453 1 453 0.679295 0.440141 0 -0.769157 
454 1 454 0.679222 0.48017 0 -1.51226 
455 1 455 0.679153 0.520199 0 -2.32301 
456 1 456 0.679085 0.560228 0 -2.99306 
457 1 457 0.679026 0.600258 0 -3.51545 
458 1 458 0.678976 0.640289 0 -3.8241 
459 1 459 0.678933 0.680321 0 -3.95377 
460 1 460 0.678894 0.720356 0 -3.87667 
461 1 461 0.678856 0.760392 0 -3.62777 
462 1 462 0.678827 0.800431 0 -3.08544 
463 1 463 0.6788 0.840469 0 -2.56666 
464 1 464 0.678784 0.880508 0 -2.26376 
465 1 465 0.678766 0.920544 0 -2.0666 
466 1 466 0.678759 0.960578 0 -1.93124 
467 1 467 0.678762 1.00061 0 -1.74316 
468 1 468 0.72 0 0 0 
469 1 469 0.719927 0.0399885 0 0.410479 
470 1 470 0.719855 0.0799814 0 0.745209 
471 1 471 0.719786 0.119979 0 0.805321 
472 1 472 0.71972 0.159982 0 0.710783 
473 1 473 0.719655 0.199991 0 0.603346 
474 1 474 0.719588 0.240005 0 0.455073 
475 1 475 0.719521 0.280023 0 0.404634 
476 1 476 0.719451 0.320047 0 0.37728 
477 1 477 0.719381 0.360073 0 0.219501 
478 1 478 0.719307 0.400102 0 -0.07013 
479 1 479 0.719232 0.440131 0 -0.689227 
480 1 480 0.719155 0.48016 0 -1.52973 
481 1 481 0.719081 0.520187 0 -2.4285 
482 1 482 0.719016 0.560215 0 -3.15749 
483 1 483 0.71896 0.600241 0 -3.65202 
484 1 484 0.718905 0.64027 0 -3.84607 
485 1 485 0.718853 0.6803 0 -3.89475 
486 1 486 0.718807 0.720336 0 -3.71849 
487 1 487 0.718766 0.760373 0 -3.44776 
488 1 488 0.71874 0.800413 0 -2.91471 
489 1 489 0.718714 0.840452 0 -2.47942 
490 1 490 0.718701 0.880492 0 -2.37925 
491 1 491 0.718689 0.920528 0 -2.23461 
492 1 492 0.718689 0.960563 0 -2.13874 
493 1 493 0.718698 1.00059 0 -2.01517 
494 1 494 0.76 0 0 0 
495 1 495 0.759922 0.0399867 0 0.115409 
496 1 496 0.759842 0.0799773 0 0.498412 
497 1 497 0.759766 0.119974 0 0.743983 
498 1 498 0.759694 0.159975 0 0.694322 
499 1 499 0.759622 0.199983 0 0.532436 
500 1 500 0.759549 0.239996 0 0.402017 
501 1 501 0.759476 0.280014 0 0.360957 
502 1 502 0.7594 0.320037 0 0.303227 
503 1 503 0.759325 0.360062 0 0.175675 
504 1 504 0.759248 0.40009 0 -0.0774749 
505 1 505 0.759172 0.440118 0 -0.679663 
506 1 506 0.759097 0.480145 0 -1.53287 
507 1 507 0.759027 0.52017 0 -2.41441 
508 1 508 0.758958 0.560197 0 -3.12173 
509 1 509 0.758895 0.600223 0 -3.59814 
510 1 510 0.758839 0.640253 0 -3.74003 
511 1 511 0.758788 0.680285 0 -3.70536 
512 1 512 0.758743 0.72032 0 -3.35876 
513 1 513 0.758698 0.760356 0 -3.07829 
514 1 514 0.758669 0.800394 0 -2.71366 
515 1 515 0.758642 0.840433 0 -2.49594 
516 1 516 0.75863 0.880472 0 -2.6077 
517 1 517 0.758621 0.920508 0 -2.48034 
518 1 518 0.758623 0.960543 0 -2.41753 
519 1 519 0.758636 1.00057 0 -2.37195 
520 1 520 0.8 0 0 0 
521 1 521 0.799915 0.0399854 0 0.00819834 
522 1 522 0.79983 0.0799755 0 0.371062 
523 1 523 0.799748 0.119971 0 0.69094 
524 1 524 0.799668 0.159972 0 0.673343 
525 1 525 0.799589 0.199978 0 0.436632 
526 1 526 0.79951 0.23999 0 0.273622 
527 1 527 0.79943 0.280008 0 0.221722 
528 1 528 0.799348 0.32003 0 0.129519 
529 1 529 0.799268 0.360055 0 -0.0433466 
530 1 530 0.799187 0.400083 0 -0.320426 
531 1 531 0.799109 0.44011 0 -0.821072 
532 1 532 0.799031 0.480136 0 -1.56638 
533 1 533 0.798956 0.520161 0 -2.35371 
534 1 534 0.798889 0.560185 0 -2.96044 
535 1 535 0.798828 0.600208 0 -3.33738 
536 1 536 0.798768 0.640235 0 -3.36195 
537 1 537 0.798706 0.680264 0 -3.27403 
538 1 538 0.798654 0.720298 0 -2.89746 
539 1 539 0.798607 0.760334 0 -2.68353 
540 1 540 0.798581 0.800371 0 -2.4928 
541 1 541 0.798555 0.840409 0 -2.47545 
542 1 542 0.798546 0.880447 0 -2.80438 
543 1 543 0.798541 0.920484 0 -2.78156 
544 1 544 0.798548 0.96052 0 -2.81218 
545 1 545 0.798566 1.00055 0 -2.85118 
546 1 546 0.84 0 0 0 
547 1 547 0.83991 0.0399846 0 0.00467721 
548 1 548 0.839817 0.0799748 0 0.392559 
549 1 549 0.839728 0.11997 0 0.724301 
550 1 550 0.839643 0.15997 0 0.631737 
551 1 551 0.839557 0.199976 0 0.302447 
552 1 552 0.839471 0.239988 0 0.105613 
553 1 553 0.839385 0.280004 0 -0.00209674 
554 1 554 0.839297 0.320024 0 -0.133717 
555 1 555 0.839212 0.360048 0 -0.34586 
556 1 556 0.839129 0.400073 0 -0.690651 
557 1 557 0.839049 0.440098 0 -1.11687 
558 1 558 0.838974 0.480122 0 -1.66127 
559 1 559 0.838903 0.520145 0 -2.18535 
560 1 560 0.838832 0.560168 0 -2.57952 
561 1 561 0.838763 0.600192 0 -2.86825 
562 1 562 0.838701 0.640221 0 -2.84441 
563 1 563 0.838642 0.68025 0 -2.74941 
564 1 564 0.838592 0.720282 0 -2.39488 
565 1 565 0.838542 0.760315 0 -2.29477 
566 1 566 0.83851 0.80035 0 -2.36189 
567 1 567 0.838483 0.840386 0 -2.57549 
568 1 568 0.838473 0.880423 0 -3.06689 
569 1 569 0.838469 0.920458 0 -3.16297 
570 1 570 0.838477 0.960494 0 -3.28888 
571 1 571 0.838498 1.00053 0 -3.38572 
572 1 572 0.88 0 0 0 
573 1 573 0.8799 0.039985 0 0.0127255 
574 1 574 0.879804 0.0799752 0 0.36417 
575 1 575 0.879709 0.119971 0 0.689308 
576 1 576 0.879617 0.159971 0 0.578124 
577 1 577 0.879525 0.199977 0 0.241281 
578 1 578 0.879434 0.239988 0 0.0303847 
579 1 579 0.879341 0.280002 0 -0.179901 
580 1 580 0.879247 0.32002 0 -0.399976 
581 1 581 0.879156 0.360041 0 -0.667023 
582 1 582 0.879068 0.400065 0 -1.02274 
583 1 583 0.878986 0.440088 0 -1.30421 
584 1 584 0.878906 0.480112 0 -1.64572 
585 1 585 0.87883 0.520134 0 -1.99697 
586 1 586 0.878761 0.560157 0 -2.24695 
587 1 587 0.878696 0.600179 0 -2.43273 
588 1 588 0.87863 0.640204 0 -2.35214 
589 1 589 0.87856 0.68023 0 -2.26036 
590 1 590 0.878503 0.720261 0 -1.93343 
591 1 591 0.878451 0.760293 0 -1.91468 
592 1 592 0.878421 0.800327 0 -2.25576 
593 1 593 0.878395 0.84036 0 -2.7187 
594 1 594 0.878385 0.880396 0 -3.33678 
595 1 595 0.878384 0.920431 0 -3.5672 
596 1 596 0.878396 0.960467 0 -3.82234 
597 1 597 0.878419 1.0005 0 -3.99063 
598 1 598 0.92 0 0 0 
599 1 599 0.919896 0.0399852 0 0.145436 
600 1 600 0.919792 0.0799756 0 0.456958 
601 1 601 0.91969 0.119971 0 0.675591 
602 1 602 0.919591 0.159972 0 0.505514 
603 1 603 0.919493 0.199978 0 0.175662 
604 1 604 0.919395 0.239986 0 -0.00356662 
605 1 605 0.919298 0.279999 0 -0.229363 
606 1 606 0.919198 0.320014 0 -0.51847 
607 1 607 0.919102 0.360032 0 -0.862174 
608 1 608 0.919011 0.400052 0 -1.27832 
609 1 609 0.918926 0.440073 0 -1.53192 
610 1 610 0.918848 0.480095 0 -1.72159 
611 1 611 0.918776 0.520115 0 -1.86505 
612 1 612 0.918704 0.560138 0 -1.93084 
613 1 613 0.918631 0.600162 0 -2.04272 
614 1 614 0.918564 0.64019 0 -1.9705 
615 1 615 0.918498 0.680217 0 -1.90478 
616 1 616 0.918444 0.720247 0 -1.66118 
617 1 617 0.918389 0.760276 0 -1.73055 
618 1 618 0.918353 0.800307 0 -2.26847 
619 1 619 0.918323 0.840338 0 -2.91326 
620 1 620 0.91831 0.880372 0 -3.67577 
621 1 621 0.918308 0.920405 0 -4.07726 
622 1 622 0.918319 0.960441 0 -4.3985 
623 1 623 0.918341 1.00048 0 -4.58964 
624 1 624 0.96 0 0 0 
625 1 625 0.959887 0.0399851 0 0.200363 
626 1 626 0.959778 0.0799756 0 0.452832 
627 1 627 0.95967 0.119971 0 0.586329 
628 1 628 0.959566 0.159971 0 0.426592 
629 1 629 0.959462 0.199976 0 0.139949 
630 1 630 0.959358 0.239984 0 -0.0212839 
631 1 631 0.959255 0.279995 0 -0.21158 
632 1 632 0.95915 0.320008 0 -0.511545 
633 1 633 0.959047 0.360024 0 -0.915418 
634 1 634 0.958951 0.400041 0 -1.38829 
635 1 635 0.958863 0.44006 0 -1.63902 
636 1 636 0.958779 0.480082 0 -1.72453 
637 1 637 0.9587 0.520103 0 -1.76209 
638 1 638 0.95863 0.560126 0 -1.75975 
639 1 639 0.958561 0.600147 0 -1.8757 
640 1 640 0.958492 0.640171 0 -1.82926 
641 1 641 0.958417 0.680197 0 -1.7365 
642 1 642 0.958357 0.720226 0 -1.56769 
643 1 643 0.958301 0.760254 0 -1.72648 
644 1 644 0.958264 0.800285 0 -2.41651 
645 1 645 0.958235 0.840315 0 -3.17115 
646 1 646 0.95822 0.880348 0 -4.00435 
647 1 647 0.95822 0.920379 0 -4.538 
648 1 648 0.958232 0.960416 0 -4.92183 
649 1 649 0.958252 1.00045 0 -5.15022 
650 1 650 1 0 0 0 
651 1 651 0.999882 0.0399849 0 0.152386 
652 1 652 0.999766 0.0799745 0 0.324455 
653 1 653 0.999651 0.119969 0 0.411042 
654 1 654 0.999541 0.159968 0 0.343895 
655 1 655 0.999431 0.199971 0 0.197704 
656 1 656 0.999321 0.239977 0 0.089591 
657 1 657 0.999212 0.279987 0 -0.0890605 
658 1 658 0.999102 0.319998 0 -0.442217 
659 1 659 0.998996 0.360011 0 -0.904465 
660 1 660 0.998897 0.400026 0 -1.39991 
661 1 661 0.998803 0.440043 0 -1.69177 
662 1 662 0.998721 0.480063 0 -1.77661 
663 1 663 0.998645 0.520082 0 -1.80447 
664 1 664 0.998572 0.560105 0 -1.78489 
665 1 665 0.998495 0.60013 0 -1.91152 
666 1 666 0.998426 0.640158 0 -1.91647 
667 1 667 0.998358 0.680185 0 -1.84437 
668 1 668 0.998301 0.720213 0 -1.77769 
669 1 669 0.998243 0.76024 0 -1.94755 
670 1 670 0.998199 0.800269 0 -2.66133 
671 1 671 0.998166 0.840297 0 -3.45848 
672 1 672 0.998146 0.880328 0 -4.32083 
673 1 673 0.998142 0.920359 0 -4.96185 
674 1 674 0.998148 0.960396 0 -5.43284 
675 1 675 0.998164 1.00044 0 -5.7278 
676 1 676 1.04 0 0 0 
677 1 677 1.03988 0.0399845 0 0.155042 
678 1 678 1.03976 0.0799721 0 0.296749 
679 1 679 1.03964 0.119964 0 0.311988 
680 1 680 1.03952 0.159961 0 0.250469 
681 1 681 1.0394 0.199963 0 0.178713 
682 1 682 1.03928 0.239968 0 0.139334 
683 1 683 1.03917 0.279976 0 0.0464232 
684 1 684 1.03906 0.319986 0 -0.318333 
685 1 685 1.03894 0.359999 0 -0.859903 
686 1 686 1.03884 0.400013 0 -1.4306 
687 1 687 1.03874 0.44003 0 -1.79014 
688 1 688 1.03865 0.480049 0 -1.84805 
689 1 689 1.03857 0.52007 0 -1.87026 
690 1 690 1.0385 0.560092 0 -1.89884 
691 1 691 1.03842 0.600116 0 -2.07701 
692 1 692 1.03835 0.64014 0 -2.14573 
693 1 693 1.03828 0.680166 0 -2.11156 
694 1 694 1.03821 0.720194 0 -2.16617 
695 1 695 1.03816 0.760222 0 -2.35207 
696 1 696 1.03811 0.800251 0 -3.06089 
697 1 697 1.03808 0.840279 0 -3.83698 
698 1 698 1.03806 0.88031 0 -4.63723 
699 1 699 1.03805 0.920341 0 -5.32028 
700 1 700 1.03805 0.96038 0 -5.8561 
701 1 701 1.03807 1.00042 0 -6.21144 
702 1 702 1.08 0 0 0 
703 1 703 1.07987 0.039982 0 0.0923398 
704 1 704 1.07975 0.079968 0 0.172402 
705 1 705 1.07962 0.119958 0 0.190797 
706 1 706 1.0795 0.159953 0 0.24 
707 1 707 1.07937 0.199952 0 0.27206 
708 1 708 1.07925 0.239955 0 0.240163 
709 1 709 1.07913 0.279962 0 0.103878 
710 1 710 1.07901 0.319971 0 -0.326704 
711 1 711 1.0789 0.359982 0 -0.86705 
712 1 712 1.07879 0.399995 0 -1.4212 
713 1 713 1.07869 0.44001 0 -1.84463 
714 1 714 1.0786 0.480027 0 -1.95726 
715 1 715 1.07851 0.520047 0 -2.03287 
716 1 716 1.07844 0.56007 0 -2.10294 
717 1 717 1.07836 0.600097 0 -2.31719 
718 1 718 1.07829 0.640127 0 -2.489 
719 1 719 1.07822 0.680156 0 -2.55041 
720 1 720 1.07816 0.720185 0 -2.73849 
721 1 721 1.0781 0.760211 0 -2.92814 
722 1 722 1.07805 0.80024 0 -3.55958 
723 1 723 1.07801 0.840268 0 -4.21193 
724 1 724 1.07798 0.880299 0 -4.88301 
725 1 725 1.07797 0.92033 0 -5.5884 
726 1 726 1.07797 0.96037 0 -6.18287 
727 1 727 1.07797 1.00041 0 -6.58522 
728 1 728 1.12 0 0 0 
729 1 729 1.11987 0.0399812 0 0.0848597 
730 1 730 1.11974 0.0799651 0 0.118286 
731 1 731 1.11961 0.119952 0 0.138346 
732 1 732 1.11948 0.159943 0 0.233082 
733 1 733 1.11935 0.19994 0 0.308565 
734 1 734 1.11922 0.239941 0 0.291417 
735 1 735 1.11909 0.279947 0 0.126024 
736 1 736 1.11897 0.319956 0 -0.33747 
737 1 737 1.11885 0.359966 0 -0.880903 
738 1 738 1.11874 0.399978 0 -1.47461 
739 1 739 1.11863 0.439993 0 -1.95796 
740 1 740 1.11853 0.48001 0 -2.07718 
741 1 741 1.11844 0.52003 0 -2.20751 
742 1 742 1.11836 0.560054 0 -2.38103 
743 1 743 1.11828 0.600079 0 -2.63158 
744 1 744 1.11821 0.640107 0 -2.85497 
745 1 745 1.11813 0.680135 0 -2.9844 
746 1 746 1.11807 0.720166 0 -3.28586 
747 1 747 1.11801 0.760196 0 -3.51172 
748 1 748 1.11796 0.800227 0 -4.10055 
749 1 749 1.11792 0.840256 0 -4.65751 
750 1 750 1.11789 0.880289 0 -5.21677 
751 1 751 1.11788 0.920323 0 -5.91301 
752 1 752 1.11787 0.960363 0 -6.49351 
753 1 753 1.11787 1.00041 0 -6.88864 
754 1 754 1.16 0 0 0 
755 1 755 1.15987 0.03998 0 0.137521 
756 1 756 1.15973 0.0799625 0 0.133369 
757 1 757 1.1596 0.119947 0 0.117136 
758 1 758 1.15946 0.159936 0 0.181293 
759 1 759 1.15932 0.199929 0 0.253261 
760 1 760 1.15919 0.239928 0 0.246987 
761 1 761 1.15906 0.279931 0 0.0765886 
762 1 762 1.15893 0.319938 0 -0.373048 
763 1 763 1.15881 0.359946 0 -0.917977 
764 1 764 1.15869 0.399957 0 -1.51627 
765 1 765 1.15858 0.439969 0 -1.99729 
766 1 766 1.15848 0.479983 0 -2.17664 
767 1 767 1.15839 0.520002 0 -2.41266 
768 1 768 1.1583 0.560026 0 -2.65729 
769 1 769 1.15821 0.600056 0 -2.90456 
770 1 770 1.15814 0.640089 0 -3.19397 
771 1 771 1.15807 0.680123 0 -3.41617 
772 1 772 1.15801 0.720156 0 -3.82457 
773 1 773 1.15795 0.760187 0 -4.12143 
774 1 774 1.15789 0.80022 0 -4.6336 
775 1 775 1.15785 0.84025 0 -5.04874 
776 1 776 1.15782 0.880285 0 -5.55687 
777 1 777 1.15779 0.92032 0 -6.26511 
778 1 778 1.15778 0.960362 0 -6.72128 
779 1 779 1.15777 1.00041 0 -7.01707 