ITEM: TIMESTEP
0
ITEM: NUMBER OF ATOMS
6875
ITEM: BOX BOUNDS sm sm sm
0 4
0 2
0 0
ITEM: ATOMS id type tag x y z damage s11 s22 s33 s12 s13 s23 vx T ienergy 
1 1 1 0.0199987 0.0199996 0 0 -0.0119973 -0.0146852 -0.00854221 -0.00479792 0 0 0.0642006 0 0 
2 1 2 0.019997 0.059998 0 0 -0.0261127 -0.0187265 -0.0143534 -0.0107582 0 0 -0.112836 0 0 
3 1 3 0.0199952 0.0999975 0 0 -0.057209 -0.0315395 -0.0284288 -0.0181519 0 0 -0.108626 0 0 
4 1 4 0.0199931 0.139997 0 0 -0.102235 -0.0453953 -0.0473079 -0.0196323 0 0 0.0773686 0 0 
5 1 5 0.0199911 0.179997 0 0 -0.137368 -0.0712757 -0.066873 -0.0146645 0 0 -0.000549256 0 0 
6 1 6 0.01999 0.219996 0 0 -0.156058 -0.0795932 -0.0755357 -0.0222954 0 0 0.126343 0 0 
7 1 7 0.0199881 0.259995 0 0 -0.184608 -0.0987038 -0.0908258 -0.0264371 0 0 0.0189093 0 0 
8 1 8 0.0199866 0.299993 0 0 -0.206943 -0.104809 -0.0999493 -0.0345685 0 0 -0.22477 0 0 
9 1 9 0.0199846 0.339992 0 0 -0.236085 -0.115744 -0.112811 -0.0382052 0 0 -0.0129547 0 0 
10 1 10 0.0199831 0.379992 0 0 -0.254112 -0.110651 -0.116961 -0.0355463 0 0 -0.086413 0 0 
11 1 11 0.0199813 0.419994 0 0 -0.275799 -0.126986 -0.129168 -0.0300508 0 0 -0.285228 0 0 
12 1 12 0.0199799 0.459995 0 0 -0.285136 -0.114571 -0.128181 -0.0238062 0 0 -0.259567 0 0 
13 1 13 0.0199775 0.499998 0 0 -0.30491 -0.140052 -0.142712 -0.0114564 0 0 -0.619495 0 0 
14 1 14 0.019974 0.539998 0 0 -0.318759 -0.136772 -0.146108 -0.0122557 0 0 -0.516165 0 0 
15 1 15 0.0199671 0.58 0 0 -0.3478 -0.165951 -0.164811 -0.00127785 0 0 -1.07384 0 0 
16 1 16 0.0199606 0.62 0 0 -0.371686 -0.161988 -0.171213 -0.00766369 0 0 -1.25457 0 0 
17 1 17 0.0199548 0.660003 0 0 -0.417301 -0.188757 -0.194474 0.00782905 0 0 -1.67018 0 0 
18 1 18 0.0199548 0.700005 0 0 -0.443089 -0.175677 -0.198558 0.014454 0 0 -1.379 0 0 
19 1 19 0.0199559 0.74001 0 0 -0.476502 -0.209381 -0.220135 0.043903 0 0 -1.35068 0 0 
20 1 20 0.0199587 0.780014 0 0 -0.49552 -0.190917 -0.220313 0.0478333 0 0 -0.7939 0 0 
21 1 21 0.0199588 0.820019 0 0 -0.533185 -0.250139 -0.251473 0.0855117 0 0 -1.45553 0 0 
22 1 22 0.0199616 0.860021 0 0 -0.534919 -0.196051 -0.234634 0.0770423 0 0 -0.194265 0 0 
23 1 23 0.019955 0.900032 0 0 -0.637156 -0.263951 -0.289376 0.122941 0 0 -0.567547 0 0 
24 1 24 0.0199545 0.940039 0 0 -0.673132 -0.228787 -0.289645 0.157861 0 0 0.057393 0 0 
25 1 25 0.0199271 0.980071 0 0 -0.960256 -0.201776 -0.383418 0.184381 0 0 0.565096 0 0 
26 1 26 0.0600007 0.0199985 0 0 -0.0062533 -0.0269223 -0.0106208 -0.0032836 0 0 0.323424 0 0 
27 1 27 0.0599984 0.0599935 0 0 -0.0282272 -0.0425769 -0.022679 -0.0216282 0 0 0.0736025 0 0 
28 1 28 0.0599905 0.0999902 0 0 -0.0690392 -0.0485334 -0.0376683 -0.0354549 0 0 -0.0761767 0 0 
29 1 29 0.0599818 0.139988 0 0 -0.0941334 -0.0424699 -0.0437676 -0.0388571 0 0 0.138176 0 0 
30 1 30 0.0599765 0.179988 0 0 -0.117788 -0.0671548 -0.0592728 -0.0238734 0 0 -0.067092 0 0 
31 1 31 0.059974 0.219986 0 0 -0.132305 -0.07434 -0.066235 -0.0333972 0 0 0.301309 0 0 
32 1 32 0.0599691 0.259984 0 0 -0.160615 -0.0971909 -0.0826473 -0.0282445 0 0 0.323539 0 0 
33 1 33 0.0599644 0.299981 0 0 -0.179336 -0.0933402 -0.0874149 -0.0313005 0 0 -0.0610834 0 0 
34 1 34 0.0599581 0.33998 0 0 -0.214728 -0.105121 -0.102553 -0.0284527 0 0 0.179098 0 0 
35 1 35 0.0599529 0.379981 0 0 -0.23241 -0.0837386 -0.101363 -0.0205312 0 0 -0.252997 0 0 
36 1 36 0.0599484 0.419986 0 0 -0.269519 -0.109117 -0.121419 -0.0125473 0 0 -0.476166 0 0 
37 1 37 0.0599458 0.45999 0 0 -0.277312 -0.0835162 -0.115705 -0.00670044 0 0 0.0708128 0 0 
38 1 38 0.0599442 0.499996 0 0 -0.305165 -0.125102 -0.137999 0.00921465 0 0 -0.251402 0 0 
39 1 39 0.0599452 0.539999 0 0 -0.305416 -0.112219 -0.133942 0.000266984 0 0 0.75341 0 0 
40 1 40 0.0599455 0.580004 0 0 -0.338378 -0.150248 -0.156741 0.0175939 0 0 0.817028 0 0 
41 1 41 0.0599455 0.620006 0 0 -0.361573 -0.14033 -0.161006 0.000101286 0 0 1.98901 0 0 
42 1 42 0.0599377 0.660013 0 0 -0.414567 -0.157068 -0.183411 0.0209276 0 0 1.83519 0 0 
43 1 43 0.0599287 0.700021 0 0 -0.44572 -0.132609 -0.185563 0.0210952 0 0 1.99624 0 0 
44 1 44 0.0599177 0.740034 0 0 -0.503311 -0.167064 -0.21515 0.0591979 0 0 1.27826 0 0 
45 1 45 0.0599105 0.780047 0 0 -0.498149 -0.139398 -0.204595 0.0587016 0 0 1.4468 0 0 
46 1 46 0.0599018 0.820061 0 0 -0.554594 -0.194293 -0.240395 0.105353 0 0 0.338003 0 0 
47 1 47 0.0598929 0.860075 0 0 -0.58607 -0.161139 -0.239861 0.0882126 0 0 0.807725 0 0 
48 1 48 0.059874 0.900097 0 0 -0.632749 -0.1431 -0.249063 0.124583 0 0 0.460542 0 0 
49 1 49 0.0598523 0.940131 0 0 -0.782627 -0.111899 -0.287262 0.145462 0 0 0.564102 0 0 
50 1 50 0.0597946 0.980184 0 0 -0.74364 0.0647163 -0.217906 0.00979349 0 0 2.11372 0 0 
51 1 51 0.0999995 0.0199965 0 0 -0.028039 -0.0577184 -0.0274854 -0.00429091 0 0 -0.032903 0 0 
52 1 52 0.0999927 0.0599887 0 0 -0.0509574 -0.0733748 -0.0398446 -0.0353725 0 0 -0.33495 0 0 
53 1 53 0.0999809 0.0999832 0 0 -0.0713583 -0.0575197 -0.0412952 -0.0408475 0 0 0.0623651 0 0 
54 1 54 0.0999697 0.13998 0 0 -0.0859161 -0.0494609 -0.0433779 -0.0388046 0 0 0.457505 0 0 
55 1 55 0.099963 0.179979 0 0 -0.0987547 -0.0570587 -0.0499347 -0.0215907 0 0 -0.0175956 0 0 
56 1 56 0.0999578 0.219977 0 0 -0.113635 -0.0600309 -0.0556609 -0.0347854 0 0 0.192582 0 0 
57 1 57 0.0999507 0.259976 0 0 -0.133257 -0.0743254 -0.0665399 -0.0224843 0 0 0.392353 0 0 
58 1 58 0.0999429 0.299976 0 0 -0.144564 -0.059249 -0.0653285 -0.0271117 0 0 0.24197 0 0 
59 1 59 0.0999319 0.339978 0 0 -0.181881 -0.0760111 -0.0826769 -0.0215991 0 0 0.418376 0 0 
60 1 60 0.0999214 0.379981 0 0 -0.202825 -0.0561257 -0.0830132 -0.0114515 0 0 -0.165683 0 0 
61 1 61 0.0999123 0.419988 0 0 -0.240407 -0.074893 -0.101093 -0.00462712 0 0 -0.481393 0 0 
62 1 62 0.0999048 0.459995 0 0 -0.255026 -0.0618426 -0.101598 0.00332729 0 0 -0.315949 0 0 
63 1 63 0.0998994 0.500004 0 0 -0.281438 -0.092811 -0.120016 0.0204297 0 0 -0.968196 0 0 
64 1 64 0.0998932 0.54001 0 0 -0.288868 -0.0914885 -0.121975 0.0115363 0 0 -0.298407 0 0 
65 1 65 0.0998814 0.580017 0 0 -0.314281 -0.11297 -0.137029 0.025758 0 0 -1.03547 0 0 
66 1 66 0.099866 0.620024 0 0 -0.342711 -0.110008 -0.14521 0.00846104 0 0 -0.825244 0 0 
67 1 67 0.0998469 0.660034 0 0 -0.385705 -0.10778 -0.158302 0.025778 0 0 -1.42214 0 0 
68 1 68 0.099833 0.700048 0 0 -0.43377 -0.0991458 -0.170971 0.0291884 0 0 -1.07244 0 0 
69 1 69 0.0998225 0.740067 0 0 -0.48495 -0.102472 -0.188486 0.0595456 0 0 -1.09497 0 0 
70 1 70 0.0998184 0.780088 0 0 -0.517525 -0.107705 -0.200639 0.0792083 0 0 -1.08641 0 0 
71 1 71 0.0998125 0.820111 0 0 -0.543022 -0.104166 -0.207696 0.091673 0 0 -0.672641 0 0 
72 1 72 0.0997993 0.860138 0 0 -0.594346 -0.107302 -0.225213 0.0913499 0 0 -0.200947 0 0 
73 1 73 0.099774 0.900171 0 0 -0.656182 -0.067235 -0.232203 0.0933988 0 0 0.216665 0 0 
74 1 74 0.0997351 0.940216 0 0 -0.695772 -0.0105928 -0.226722 0.0498803 0 0 0.958212 0 0 
75 1 75 0.099678 0.980266 0 0 -0.675332 -0.0210784 -0.223525 0.0139014 0 0 3.02695 0 0 
76 1 76 0.14 0.0199947 0 0 -0.0522031 -0.090932 -0.0458778 -0.00515289 0 0 -0.0713237 0 0 
77 1 77 0.139993 0.0599851 0 0 -0.0615922 -0.0773429 -0.0445254 -0.0347918 0 0 0.0268765 0 0 
78 1 78 0.139977 0.0999801 0 0 -0.0609869 -0.0476415 -0.0348117 -0.0345178 0 0 0.502992 0 0 
79 1 79 0.139961 0.139977 0 0 -0.0807635 -0.0569801 -0.0441424 -0.0266062 0 0 0.585416 0 0 
80 1 80 0.139953 0.179975 0 0 -0.0922217 -0.0509526 -0.0458826 -0.00531411 0 0 0.168431 0 0 
81 1 81 0.139946 0.219974 0 0 -0.0954756 -0.0410185 -0.0437407 -0.0182985 0 0 0.483939 0 0 
82 1 82 0.139937 0.259975 0 0 -0.109196 -0.0491264 -0.0507412 -0.00680031 0 0 0.657534 0 0 
83 1 83 0.139926 0.299977 0 0 -0.125953 -0.0357185 -0.0518163 -0.0221894 0 0 0.570402 0 0 
84 1 84 0.13991 0.339981 0 0 -0.160577 -0.0495713 -0.0673639 -0.0190415 0 0 0.549236 0 0 
85 1 85 0.139895 0.379987 0 0 -0.18298 -0.0358577 -0.0701467 -0.0116841 0 0 0.0411863 0 0 
86 1 86 0.139882 0.419996 0 0 -0.218886 -0.0472302 -0.0853108 -0.00363152 0 0 0.103481 0 0 
87 1 87 0.139873 0.460005 0 0 -0.236588 -0.0425696 -0.0894954 0.00975136 0 0 0.434826 0 0 
88 1 88 0.139868 0.500016 0 0 -0.263068 -0.0639905 -0.104868 0.0276915 0 0 0.272369 0 0 
89 1 89 0.139865 0.540026 0 0 -0.27967 -0.0641668 -0.110251 0.022355 0 0 1.00463 0 0 
90 1 90 0.13986 0.580037 0 0 -0.31563 -0.086359 -0.128918 0.0322052 0 0 1.04106 0 0 
91 1 91 0.139849 0.620049 0 0 -0.3536 -0.0764425 -0.137928 0.0122274 0 0 2.0727 0 0 
92 1 92 0.139827 0.660065 0 0 -0.406739 -0.090086 -0.159376 0.0282395 0 0 1.78124 0 0 
93 1 93 0.139802 0.700084 0 0 -0.448776 -0.0754612 -0.168185 0.0291722 0 0 1.99201 0 0 
94 1 94 0.139777 0.740108 0 0 -0.496971 -0.0777335 -0.1844 0.0600907 0 0 1.69322 0 0 
95 1 95 0.13976 0.780135 0 0 -0.539987 -0.0719364 -0.196365 0.0773505 0 0 1.15365 0 0 
96 1 96 0.139742 0.820166 0 0 -0.586163 -0.0797976 -0.213733 0.0833127 0 0 0.983989 0 0 
97 1 97 0.139717 0.860201 0 0 -0.607509 -0.0444063 -0.209218 0.0659008 0 0 1.30637 0 0 
98 1 98 0.139678 0.900242 0 0 -0.642304 -0.0434636 -0.220096 0.0504399 0 0 1.30625 0 0 
99 1 99 0.139631 0.940286 0 0 -0.650252 -0.0137953 -0.213126 0.0280685 0 0 2.4938 0 0 
100 1 100 0.139574 0.980335 0 0 -0.643112 0.00805174 -0.203806 0.0084691 0 0 3.77967 0 0 
101 1 101 0.179997 0.0199945 0 0 -0.0617678 -0.0983733 -0.0513198 -0.00959974 0 0 -0.160774 0 0 
102 1 102 0.179984 0.0599862 0 0 -0.0685983 -0.0649387 -0.0427921 -0.0295504 0 0 -0.0135122 0 0 
103 1 103 0.179967 0.0999829 0 0 -0.070392 -0.0458216 -0.037245 -0.0278622 0 0 0.368157 0 0 
104 1 104 0.179952 0.13998 0 0 -0.0753233 -0.05338 -0.0412458 -0.018317 0 0 0.57994 0 0 
105 1 105 0.179942 0.179979 0 0 -0.0699659 -0.0298784 -0.0319912 0.00423991 0 0 0.639379 0 0 
106 1 106 0.179934 0.21998 0 0 -0.0767208 -0.0250406 -0.032602 -0.00481305 0 0 0.801583 0 0 
107 1 107 0.179923 0.259982 0 0 -0.0935825 -0.0305931 -0.0397887 -0.000114184 0 0 0.926678 0 0 
108 1 108 0.179908 0.299985 0 0 -0.114093 -0.0254073 -0.0447069 -0.0173147 0 0 1.05327 0 0 
109 1 109 0.179888 0.339991 0 0 -0.137672 -0.0297478 -0.0536621 -0.0160622 0 0 0.874513 0 0 
110 1 110 0.179868 0.379998 0 0 -0.166344 -0.0216307 -0.0602493 -0.0161905 0 0 0.42115 0 0 
111 1 111 0.179849 0.420009 0 0 -0.20688 -0.0292716 -0.0756972 -0.00849313 0 0 0.22257 0 0 
112 1 112 0.179834 0.460021 0 0 -0.228785 -0.0220531 -0.0804087 0.00953048 0 0 -0.0878193 0 0 
113 1 113 0.179824 0.500035 0 0 -0.262166 -0.0419562 -0.097507 0.0254818 0 0 -0.220699 0 0 
114 1 114 0.179812 0.540049 0 0 -0.282051 -0.0308323 -0.100316 0.0254858 0 0 0.0781595 0 0 
115 1 115 0.179793 0.580065 0 0 -0.319051 -0.0555123 -0.120115 0.0323251 0 0 -0.595762 0 0 
116 1 116 0.179765 0.620083 0 0 -0.338945 -0.0286559 -0.117882 0.0114311 0 0 -0.528699 0 0 
117 1 117 0.179732 0.660105 0 0 -0.386679 -0.0503495 -0.140172 0.027322 0 0 -1.58014 0 0 
118 1 118 0.179703 0.700128 0 0 -0.426743 -0.037409 -0.148885 0.0263014 0 0 -1.13843 0 0 
119 1 119 0.179677 0.740156 0 0 -0.476296 -0.0453747 -0.167359 0.0595189 0 0 -1.13859 0 0 
120 1 120 0.17966 0.780186 0 0 -0.513096 -0.0388418 -0.177086 0.0705819 0 0 -0.902044 0 0 
121 1 121 0.179641 0.820222 0 0 -0.557345 -0.0249873 -0.186851 0.0695358 0 0 -0.297361 0 0 
122 1 122 0.179614 0.860262 0 0 -0.597788 -0.0285243 -0.200984 0.051034 0 0 0.227351 0 0 
123 1 123 0.179575 0.900304 0 0 -0.606301 -0.00640185 -0.196608 0.0299094 0 0 1.42429 0 0 
124 1 124 0.179527 0.940351 0 0 -0.619111 0.00143203 -0.198227 0.0151581 0 0 2.9267 0 0 
125 1 125 0.179472 0.980397 0 0 -0.604817 -0.00227667 -0.194822 0.00913917 0 0 3.78352 0 0 
126 1 126 0.219995 0.0199959 0 0 -0.0622828 -0.0812857 -0.0460069 -0.0199684 0 0 0.197563 0 0 
127 1 127 0.21998 0.0599904 0 0 -0.0778943 -0.0503542 -0.0410927 -0.0292634 0 0 0.629408 0 0 
128 1 128 0.219961 0.0999886 0 0 -0.0823888 -0.0495794 -0.0422903 -0.0242428 0 0 0.886503 0 0 
129 1 129 0.219945 0.139987 0 0 -0.0732813 -0.0422551 -0.0370227 -0.010515 0 0 0.968009 0 0 
130 1 130 0.219934 0.179988 0 0 -0.0722264 -0.0195663 -0.0294093 0.00220256 0 0 1.10483 0 0 
131 1 131 0.219923 0.21999 0 0 -0.0912651 -0.0256947 -0.0374718 -0.00118381 0 0 0.768801 0 0 
132 1 132 0.21991 0.259994 0 0 -0.0967773 -0.01843 -0.0369088 -0.000505004 0 0 0.75284 0 0 
133 1 133 0.219892 0.299999 0 0 -0.113255 -0.0165664 -0.0415999 -0.0156948 0 0 1.12117 0 0 
134 1 134 0.219869 0.340005 0 0 -0.139954 -0.0275394 -0.0536849 -0.0133989 0 0 0.73525 0 0 
135 1 135 0.219844 0.380013 0 0 -0.170839 -0.0186032 -0.060723 -0.0205795 0 0 0.768293 0 0 
136 1 136 0.219819 0.420024 0 0 -0.215842 -0.0266796 -0.0777448 -0.00821985 0 0 0.912516 0 0 
137 1 137 0.219801 0.460038 0 0 -0.249746 -0.0152895 -0.0849688 0.00885029 0 0 0.902788 0 0 
138 1 138 0.219788 0.500055 0 0 -0.297807 -0.0333186 -0.106179 0.0244677 0 0 1.16818 0 0 
139 1 139 0.219777 0.540074 0 0 -0.319551 -0.0123645 -0.106429 0.0263995 0 0 1.45237 0 0 
140 1 140 0.219763 0.580097 0 0 -0.37133 -0.0399263 -0.1319 0.0285639 0 0 1.35394 0 0 
141 1 141 0.21974 0.620121 0 0 -0.402702 -0.0204081 -0.135706 0.00987351 0 0 2.12743 0 0 
142 1 142 0.219705 0.660148 0 0 -0.448773 -0.0502629 -0.160089 0.0236844 0 0 1.48971 0 0 
143 1 143 0.219667 0.700176 0 0 -0.471741 -0.0351901 -0.162624 0.0179802 0 0 1.83556 0 0 
144 1 144 0.219627 0.740207 0 0 -0.507976 -0.0434375 -0.176915 0.0509051 0 0 1.36328 0 0 
145 1 145 0.219597 0.78024 0 0 -0.550646 -0.043332 -0.190592 0.0594592 0 0 1.41057 0 0 
146 1 146 0.219565 0.820279 0 0 -0.571698 -0.0112641 -0.18705 0.0562829 0 0 1.87913 0 0 
147 1 147 0.219529 0.860321 0 0 -0.596939 -0.0202248 -0.198044 0.0452347 0 0 2.07374 0 0 
148 1 148 0.219483 0.900365 0 0 -0.603878 -4.30617e-05 -0.193783 0.0250114 0 0 2.9351 0 0 
149 1 149 0.219432 0.94041 0 0 -0.592605 0.00865244 -0.187387 0.00845387 0 0 3.85414 0 0 
150 1 150 0.219378 0.980456 0 0 -0.571273 -0.003811 -0.184535 0.0132635 0 0 3.91392 0 0 
151 1 151 0.25999 0.0199982 0 0 -0.0444195 -0.0484769 -0.0297648 -0.0360088 0 0 0.286914 0 0 
152 1 152 0.259969 0.0599954 0 0 -0.0573976 -0.0272991 -0.0271301 -0.0338958 0 0 0.639461 0 0 
153 1 153 0.25995 0.0999958 0 0 -0.0590546 -0.0294784 -0.0283621 -0.024385 0 0 1.13462 0 0 
154 1 154 0.259935 0.139996 0 0 -0.0593824 -0.0233453 -0.0265015 -0.00946805 0 0 0.986559 0 0 
155 1 155 0.259922 0.179998 0 0 -0.0724297 -0.0121874 -0.0271074 -0.00666329 0 0 0.929366 0 0 
156 1 156 0.259908 0.220001 0 0 -0.09537 -0.0184212 -0.0364538 -0.00297292 0 0 0.688918 0 0 
157 1 157 0.259894 0.260008 0 0 -0.103896 -0.00561459 -0.0350794 -0.00447052 0 0 0.603677 0 0 
158 1 158 0.259873 0.300014 0 0 -0.129873 -0.0173932 -0.0471887 -0.0239345 0 0 1.00088 0 0 
159 1 159 0.259846 0.340022 0 0 -0.161153 -0.0269296 -0.0602818 -0.0225054 0 0 0.528948 0 0 
160 1 160 0.259815 0.380031 0 0 -0.196646 -0.0240504 -0.0707456 -0.0341747 0 0 0.890801 0 0 
161 1 161 0.259782 0.420044 0 0 -0.237719 -0.0270439 -0.0848823 -0.016811 0 0 0.718164 0 0 
162 1 162 0.259756 0.46006 0 0 -0.268904 -0.0129812 -0.0903804 -0.0016793 0 0 0.407152 0 0 
163 1 163 0.259734 0.50008 0 0 -0.311949 -0.0120796 -0.103907 0.0138233 0 0 0.587838 0 0 
164 1 164 0.259712 0.540104 0 0 -0.346798 0.00417797 -0.109869 0.0170827 0 0 0.339029 0 0 
165 1 165 0.259682 0.580133 0 0 -0.387803 -0.00441153 -0.125788 0.0149297 0 0 -0.247406 0 0 
166 1 166 0.259643 0.620163 0 0 -0.398607 0.0200338 -0.121407 0.00397772 0 0 -0.522243 0 0 
167 1 167 0.2596 0.660196 0 0 -0.428137 -0.0086846 -0.140106 0.0183478 0 0 -1.72536 0 0 
168 1 168 0.259561 0.700228 0 0 -0.443375 -0.000954605 -0.142515 0.0168339 0 0 -1.2293 0 0 
169 1 169 0.259524 0.740262 0 0 -0.469636 -0.0119401 -0.154478 0.0463824 0 0 -1.24464 0 0 
170 1 170 0.259494 0.780297 0 0 -0.505016 -0.00632278 -0.164038 0.0475921 0 0 -0.478091 0 0 
171 1 171 0.259462 0.820337 0 0 -0.535226 0.011389 -0.168049 0.0519487 0 0 0.301688 0 0 
172 1 172 0.259428 0.86038 0 0 -0.559252 0.00668793 -0.177283 0.0389776 0 0 1.34599 0 0 
173 1 173 0.259384 0.900424 0 0 -0.562546 0.0132201 -0.176238 0.0190679 0 0 3.03619 0 0 
174 1 174 0.259336 0.940468 0 0 -0.56115 0.00193377 -0.179436 0.011584 0 0 3.73106 0 0 
175 1 175 0.259288 0.98051 0 0 -0.547351 -0.00680399 -0.177806 0.0129888 0 0 3.60003 0 0 
176 1 176 0.299988 0.0199996 0 0 -0.0340776 -0.0252551 -0.0190077 -0.052322 0 0 0.720057 0 0 
177 1 177 0.299965 0.0599989 0 0 -0.0561617 -0.0169878 -0.0234317 -0.039012 0 0 1.01498 0 0 
178 1 178 0.299945 0.100001 0 0 -0.0619967 -0.0199763 -0.0262585 -0.0293791 0 0 1.34533 0 0 
179 1 179 0.299927 0.140003 0 0 -0.0687416 -0.014639 -0.0267088 -0.0198725 0 0 1.00712 0 0 
180 1 180 0.299911 0.180007 0 0 -0.083872 -0.010779 -0.0303231 -0.0200868 0 0 0.919224 0 0 
181 1 181 0.299895 0.220012 0 0 -0.099698 -0.00808504 -0.0345287 -0.0130529 0 0 0.905223 0 0 
182 1 182 0.299877 0.26002 0 0 -0.120168 0.00103424 -0.0381652 -0.017974 0 0 0.296097 0 0 
183 1 183 0.299852 0.300028 0 0 -0.155271 -0.0207689 -0.0564126 -0.0340916 0 0 0.393818 0 0 
184 1 184 0.299821 0.340038 0 0 -0.176641 -0.0161893 -0.0617986 -0.0331665 0 0 0.26602 0 0 
185 1 185 0.299785 0.38005 0 0 -0.21286 -0.0195339 -0.0744911 -0.0468152 0 0 0.925452 0 0 
186 1 186 0.299747 0.420065 0 0 -0.259448 -0.0230296 -0.0905634 -0.027695 0 0 0.960896 0 0 
187 1 187 0.299714 0.460083 0 0 -0.315375 -0.0187966 -0.107159 -0.0135183 0 0 1.29891 0 0 
188 1 188 0.299687 0.500107 0 0 -0.371197 -0.0142004 -0.123607 0.00504462 0 0 1.76598 0 0 
189 1 189 0.299662 0.540135 0 0 -0.413498 0.0026625 -0.131769 0.0103455 0 0 1.76434 0 0 
190 1 190 0.299635 0.580169 0 0 -0.460347 0.00123314 -0.147269 0.0104362 0 0 1.88315 0 0 
191 1 191 0.299603 0.620205 0 0 -0.481794 0.0125383 -0.150525 0.00526108 0 0 2.29584 0 0 
192 1 192 0.299563 0.660244 0 0 -0.5015 -0.0100223 -0.1641 0.0138458 0 0 1.76851 0 0 
193 1 193 0.299519 0.70028 0 0 -0.498262 -0.00689568 -0.162054 0.0141733 0 0 1.97087 0 0 
194 1 194 0.299473 0.740317 0 0 -0.508434 -0.0195049 -0.169373 0.0361715 0 0 1.51909 0 0 
195 1 195 0.299431 0.780354 0 0 -0.529649 -0.00655875 -0.172028 0.0293442 0 0 2.23992 0 0 
196 1 196 0.299388 0.820395 0 0 -0.548667 0.00526323 -0.174336 0.0390597 0 0 2.42012 0 0 
197 1 197 0.299346 0.860437 0 0 -0.559211 0.00400122 -0.178135 0.02782 0 0 2.90416 0 0 
198 1 198 0.299299 0.90048 0 0 -0.548053 0.00605166 -0.173886 0.0142822 0 0 3.89836 0 0 
199 1 199 0.299251 0.940521 0 0 -0.523455 -0.000417334 -0.168077 0.00527957 0 0 4.04086 0 0 
200 1 200 0.299204 0.980561 0 0 -0.511182 -0.00572206 -0.165835 0.0104483 0 0 3.57295 0 0 
201 1 201 0.339984 0.0200006 0 0 -0.00849887 -0.00127228 -0.00312545 -0.0632365 0 0 0.85081 0 0 
202 1 202 0.339956 0.0600015 0 0 -0.0210204 0.00581541 -0.00486291 -0.045256 0 0 0.978132 0 0 
203 1 203 0.339935 0.100005 0 0 -0.0420851 -0.00653538 -0.01557 -0.0360128 0 0 1.29796 0 0 
204 1 204 0.339917 0.140007 0 0 -0.0545214 0.0026368 -0.0166145 -0.0322577 0 0 1.05093 0 0 
205 1 205 0.339898 0.180013 0 0 -0.0770553 -0.000717834 -0.0249142 -0.0341102 0 0 0.554768 0 0 
206 1 206 0.339877 0.22002 0 0 -0.103008 0.00534222 -0.0312887 -0.0290473 0 0 0.369107 0 0 
207 1 207 0.339855 0.26003 0 0 -0.13489 0.00687408 -0.0410152 -0.0353158 0 0 -0.219322 0 0 
208 1 208 0.339826 0.300042 0 0 -0.161075 -0.000656941 -0.0518246 -0.0439911 0 0 -0.07881 0 0 
209 1 209 0.339791 0.340055 0 0 -0.190521 -0.00312501 -0.0620603 -0.0468601 0 0 0.174991 0 0 
210 1 210 0.339748 0.38007 0 0 -0.237041 -0.0120959 -0.0798589 -0.0618123 0 0 0.879405 0 0 
211 1 211 0.339702 0.420088 0 0 -0.278756 -0.0149778 -0.0941709 -0.0422836 0 0 0.785461 0 0 
212 1 212 0.33966 0.460109 0 0 -0.317728 0.000498148 -0.101716 -0.033855 0 0 1.1178 0 0 
213 1 213 0.339621 0.500136 0 0 -0.365119 0.0140228 -0.11259 -0.0124429 0 0 0.976779 0 0 
214 1 214 0.339583 0.540169 0 0 -0.405303 0.0342608 -0.11899 -0.00789872 0 0 0.701493 0 0 
215 1 215 0.33954 0.580208 0 0 -0.43374 0.0508824 -0.122782 -0.0048129 0 0 0.233882 0 0 
216 1 216 0.339494 0.620249 0 0 -0.443502 0.0513946 -0.125753 -0.0004594 0 0 -0.58787 0 0 
217 1 217 0.339449 0.660291 0 0 -0.439251 0.0495597 -0.124975 0.00846878 0 0 -1.30898 0 0 
218 1 218 0.339409 0.700331 0 0 -0.43816 0.0370551 -0.128639 0.0118749 0 0 -1.01871 0 0 
219 1 219 0.33937 0.74037 0 0 -0.448971 0.0238487 -0.13635 0.0252864 0 0 -0.988427 0 0 
220 1 220 0.339331 0.780409 0 0 -0.465258 0.0304908 -0.139446 0.0158577 0 0 0.204964 0 0 
221 1 221 0.33929 0.82045 0 0 -0.485116 0.0287809 -0.14637 0.0286664 0 0 0.766839 0 0 
222 1 222 0.339251 0.860492 0 0 -0.50327 0.0270394 -0.152766 0.0169044 0 0 2.0915 0 0 
223 1 223 0.339209 0.900533 0 0 -0.508292 0.00635532 -0.16102 0.0178495 0 0 3.28719 0 0 
224 1 224 0.339167 0.940571 0 0 -0.496919 -0.0032761 -0.160472 0.00796567 0 0 3.78567 0 0 
225 1 225 0.339122 0.980608 0 0 -0.50117 -0.00866057 -0.163561 0.00540827 0 0 3.60114 0 0 
226 1 226 0.379985 0.0200013 0 0 -0.00423861 0.00898513 0.0015283 -0.0693197 0 0 0.913318 0 0 
227 1 227 0.379956 0.0600024 0 0 -0.0190297 0.0042498 -0.00472543 -0.0526024 0 0 1.02799 0 0 
228 1 228 0.379932 0.100005 0 0 -0.0354862 -0.00033329 -0.0114682 -0.046679 0 0 1.1975 0 0 
229 1 229 0.379909 0.140009 0 0 -0.0503949 0.0110832 -0.0125858 -0.0432291 0 0 1.10774 0 0 
230 1 230 0.379886 0.180016 0 0 -0.0774282 0.00999797 -0.0216005 -0.0466711 0 0 0.715927 0 0 
231 1 231 0.379861 0.220025 0 0 -0.104505 0.0218322 -0.0264869 -0.0417744 0 0 0.574464 0 0 
232 1 232 0.379833 0.260038 0 0 -0.137192 0.0229266 -0.0366123 -0.0455914 0 0 0.100016 0 0 
233 1 233 0.3798 0.300053 0 0 -0.167028 0.0255197 -0.0453451 -0.0495742 0 0 -0.0765518 0 0 
234 1 234 0.37976 0.340071 0 0 -0.201427 0.017648 -0.0589006 -0.0562753 0 0 0.173925 0 0 
235 1 235 0.379712 0.38009 0 0 -0.234101 0.0118368 -0.0712403 -0.0677439 0 0 0.903783 0 0 
236 1 236 0.37966 0.420111 0 0 -0.273991 0.00914385 -0.0849014 -0.0495987 0 0 1.06026 0 0 
237 1 237 0.379611 0.460135 0 0 -0.332618 0.0123992 -0.10267 -0.046312 0 0 1.98263 0 0 
238 1 238 0.379565 0.500166 0 0 -0.395154 0.0231127 -0.119308 -0.0245812 0 0 1.96847 0 0 
239 1 239 0.379523 0.540202 0 0 -0.451289 0.0324235 -0.13434 -0.0193287 0 0 2.20508 0 0 
240 1 240 0.379484 0.580245 0 0 -0.48366 0.050096 -0.139062 -0.0128106 0 0 2.44539 0 0 
241 1 241 0.379446 0.620289 0 0 -0.509933 0.0334829 -0.15284 -0.00718349 0 0 2.4965 0 0 
242 1 242 0.379407 0.660334 0 0 -0.509829 0.0337298 -0.152724 -0.00082889 0 0 2.32569 0 0 
243 1 243 0.379365 0.700376 0 0 -0.499555 0.0175432 -0.154623 -0.000242357 0 0 2.07136 0 0 
244 1 244 0.379319 0.740417 0 0 -0.492854 0.0191358 -0.151957 -0.000391307 0 0 1.82176 0 0 
245 1 245 0.379271 0.780458 0 0 -0.50116 0.0222434 -0.153627 -0.00909235 0 0 2.41774 0 0 
246 1 246 0.379222 0.8205 0 0 -0.509909 0.0139312 -0.159107 0.00850254 0 0 2.35937 0 0 
247 1 247 0.379176 0.860541 0 0 -0.503875 0.026589 -0.15311 0.00133553 0 0 3.15861 0 0 
248 1 248 0.379133 0.900582 0 0 -0.491753 0.00816386 -0.155132 0.0203249 0 0 3.40382 0 0 
249 1 249 0.379092 0.940619 0 0 -0.468066 0.00465654 -0.148661 0.00671434 0 0 3.81522 0 0 
250 1 250 0.379046 0.980655 0 0 -0.467131 -0.00019592 -0.14991 0.0034967 0 0 3.61393 0 0 
251 1 251 0.419982 0.0200015 0 0 0.0125291 0.0191701 0.0101636 -0.0725052 0 0 0.665654 0 0 
252 1 252 0.41995 0.0600024 0 0 0.00457128 0.00986997 0.0046382 -0.0582327 0 0 0.718441 0 0 
253 1 253 0.419924 0.100006 0 0 -0.0173004 0.0169716 -9.54839e-05 -0.0557191 0 0 1.08916 0 0 
254 1 254 0.419899 0.140011 0 0 -0.0447974 0.0243937 -0.00652818 -0.0476104 0 0 1.09022 0 0 
255 1 255 0.419871 0.18002 0 0 -0.0707725 0.028159 -0.0136486 -0.0522031 0 0 0.750186 0 0 
256 1 256 0.419841 0.220032 0 0 -0.0962338 0.0444547 -0.0165871 -0.0483436 0 0 0.611597 0 0 
257 1 257 0.419808 0.260048 0 0 -0.13181 0.0453189 -0.0277118 -0.0526882 0 0 0.216297 0 0 
258 1 258 0.419769 0.300067 0 0 -0.162709 0.0539459 -0.0348508 -0.0566473 0 0 -0.104091 0 0 
259 1 259 0.419724 0.340089 0 0 -0.197845 0.0485222 -0.0478541 -0.0648226 0 0 0.226574 0 0 
260 1 260 0.419671 0.380112 0 0 -0.232985 0.0363397 -0.063026 -0.075826 0 0 1.10938 0 0 
261 1 261 0.419613 0.420137 0 0 -0.269874 0.0333162 -0.0758277 -0.0652199 0 0 1.19848 0 0 
262 1 262 0.419554 0.460165 0 0 -0.309956 0.0384221 -0.0870484 -0.0673981 0 0 1.78684 0 0 
263 1 263 0.419495 0.500198 0 0 -0.347658 0.0594938 -0.092387 -0.0501 0 0 1.26409 0 0 
264 1 264 0.41944 0.540237 0 0 -0.390479 0.0738777 -0.101511 -0.0459619 0 0 1.12675 0 0 
265 1 265 0.419385 0.58028 0 0 -0.40893 0.0906391 -0.102054 -0.0305101 0 0 0.218426 0 0 
266 1 266 0.419335 0.620325 0 0 -0.409128 0.0850836 -0.103906 -0.0222548 0 0 -0.659415 0 0 
267 1 267 0.419292 0.660371 0 0 -0.397033 0.0945686 -0.0969787 -0.0137121 0 0 -1.0971 0 0 
268 1 268 0.419254 0.700414 0 0 -0.41101 0.0654471 -0.11081 -0.0110409 0 0 -1.39482 0 0 
269 1 269 0.419216 0.740456 0 0 -0.420985 0.0673354 -0.113403 -0.0190226 0 0 -0.977465 0 0 
270 1 270 0.419172 0.780499 0 0 -0.432836 0.064198 -0.118218 -0.0247924 0 0 -0.162514 0 0 
271 1 271 0.419129 0.820542 0 0 -0.450561 0.0497125 -0.128559 -0.00854759 0 0 0.39325 0 0 
272 1 272 0.419087 0.860585 0 0 -0.463178 0.0534754 -0.131409 -0.0108528 0 0 1.90378 0 0 
273 1 273 0.419049 0.900627 0 0 -0.470563 0.0260459 -0.142587 0.0227907 0 0 2.33038 0 0 
274 1 274 0.419014 0.940665 0 0 -0.457355 0.0149987 -0.141902 0.00711186 0 0 3.48566 0 0 
275 1 275 0.418971 0.980701 0 0 -0.447466 0.00483653 -0.14198 0.00142815 0 0 3.83314 0 0 
276 1 276 0.459984 0.0200011 0 0 0.00376477 0.0138202 0.0056402 -0.0719515 0 0 0.763926 0 0 
277 1 277 0.459953 0.0600028 0 0 -0.0109865 0.0106954 -8.19394e-05 -0.0601169 0 0 1.09058 0 0 
278 1 278 0.459922 0.100008 0 0 -0.0275513 0.0233097 -0.00134963 -0.0588151 0 0 1.36459 0 0 
279 1 279 0.45989 0.140015 0 0 -0.0471765 0.0415564 -0.00179297 -0.0497944 0 0 1.36316 0 0 
280 1 280 0.459858 0.180027 0 0 -0.0793109 0.0395062 -0.0127493 -0.0535796 0 0 1.30038 0 0 
281 1 281 0.459823 0.220041 0 0 -0.10235 0.0597763 -0.0136362 -0.0519374 0 0 1.08095 0 0 
282 1 282 0.459783 0.260061 0 0 -0.139447 0.0604019 -0.0253255 -0.0569001 0 0 0.69831 0 0 
283 1 283 0.459739 0.300082 0 0 -0.171839 0.0703679 -0.0325131 -0.0611353 0 0 0.483424 0 0 
284 1 284 0.459689 0.340108 0 0 -0.199358 0.0709961 -0.0411333 -0.0689788 0 0 0.522865 0 0 
285 1 285 0.459632 0.380134 0 0 -0.219514 0.0606273 -0.0509172 -0.0807061 0 0 1.07254 0 0 
286 1 286 0.45957 0.420162 0 0 -0.24818 0.0625526 -0.0594912 -0.0813992 0 0 1.29444 0 0 
287 1 287 0.459505 0.460192 0 0 -0.305409 0.0502278 -0.0818049 -0.0849616 0 0 2.04636 0 0 
288 1 288 0.45944 0.500227 0 0 -0.3581 0.0617612 -0.095014 -0.0718093 0 0 1.96339 0 0 
289 1 289 0.459382 0.540266 0 0 -0.41112 0.0655947 -0.110796 -0.0661346 0 0 2.46277 0 0 
290 1 290 0.459332 0.58031 0 0 -0.44536 0.07107 -0.120028 -0.0438246 0 0 2.23487 0 0 
291 1 291 0.459291 0.620354 0 0 -0.490198 0.0397268 -0.144491 -0.0372305 0 0 2.39367 0 0 
292 1 292 0.459252 0.660399 0 0 -0.501492 0.0469695 -0.145792 -0.0288758 0 0 2.38501 0 0 
293 1 293 0.459211 0.700443 0 0 -0.508237 0.0275684 -0.15419 -0.0306381 0 0 1.81217 0 0 
294 1 294 0.459164 0.740488 0 0 -0.506503 0.0405144 -0.149473 -0.0428352 0 0 1.68118 0 0 
295 1 295 0.459112 0.780533 0 0 -0.50831 0.0412838 -0.14981 -0.0423199 0 0 1.58729 0 0 
296 1 296 0.459062 0.820578 0 0 -0.50851 0.0369877 -0.151253 -0.0268273 0 0 1.73271 0 0 
297 1 297 0.459015 0.860623 0 0 -0.490036 0.0538186 -0.139921 -0.0220824 0 0 2.53595 0 0 
298 1 298 0.458975 0.900667 0 0 -0.474624 0.0400792 -0.139383 0.0184214 0 0 2.36039 0 0 
299 1 299 0.458942 0.940708 0 0 -0.450565 0.0300131 -0.134898 0.00530705 0 0 3.381 0 0 
300 1 300 0.458902 0.980745 0 0 -0.417367 0.0136067 -0.129497 0.00250325 0 0 3.75862 0 0 
301 1 301 0.499982 0.0200015 0 0 0.00783989 0.0195522 0.008781 -0.0719534 0 0 0.274808 0 0 
302 1 302 0.499946 0.0600053 0 0 -0.00134895 0.0352294 0.0108645 -0.0655302 0 0 0.668918 0 0 
303 1 303 0.499912 0.100013 0 0 -0.0313708 0.0362718 0.00157851 -0.0625695 0 0 1.18731 0 0 
304 1 304 0.499877 0.140023 0 0 -0.052863 0.0566434 0.00121876 -0.0546798 0 0 1.31931 0 0 
305 1 305 0.49984 0.180038 0 0 -0.082854 0.0552952 -0.00882513 -0.0577667 0 0 1.58382 0 0 
306 1 306 0.4998 0.220055 0 0 -0.103466 0.073885 -0.00947319 -0.0581895 0 0 1.28342 0 0 
307 1 307 0.499755 0.260076 0 0 -0.135422 0.0779888 -0.018397 -0.0667576 0 0 0.980678 0 0 
308 1 308 0.499705 0.300101 0 0 -0.163037 0.0867711 -0.0244314 -0.0713331 0 0 0.635727 0 0 
309 1 309 0.49965 0.340129 0 0 -0.192194 0.0882253 -0.0333104 -0.0810666 0 0 0.252738 0 0 
310 1 310 0.49959 0.380157 0 0 -0.22941 0.0691266 -0.0513627 -0.0911956 0 0 0.635335 0 0 
311 1 311 0.499522 0.420187 0 0 -0.255292 0.0699338 -0.0594036 -0.101728 0 0 1.03235 0 0 
312 1 312 0.499449 0.460218 0 0 -0.283676 0.0680506 -0.0691168 -0.108278 0 0 1.5657 0 0 
313 1 313 0.499375 0.500254 0 0 -0.311219 0.0878246 -0.0716125 -0.101314 0 0 1.19789 0 0 
314 1 314 0.499303 0.540293 0 0 -0.353784 0.086205 -0.0857837 -0.0925358 0 0 1.1525 0 0 
315 1 315 0.499238 0.580336 0 0 -0.364339 0.103116 -0.0837415 -0.061403 0 0 0.000835776 0 0 
316 1 316 0.499184 0.620379 0 0 -0.372143 0.0906266 -0.0902536 -0.0534254 0 0 -0.550265 0 0 
317 1 317 0.499138 0.660423 0 0 -0.374201 0.104111 -0.086587 -0.0362391 0 0 -1.239 0 0 
318 1 318 0.499099 0.700468 0 0 -0.408179 0.0835289 -0.104096 -0.0410879 0 0 -1.63832 0 0 
319 1 319 0.499057 0.740514 0 0 -0.432632 0.0888246 -0.110244 -0.0521919 0 0 -1.1734 0 0 
320 1 320 0.499011 0.780561 0 0 -0.448806 0.0815298 -0.117781 -0.0485527 0 0 -0.939663 0 0 
321 1 321 0.498966 0.820608 0 0 -0.466301 0.0745681 -0.125629 -0.0392227 0 0 -0.0454551 0 0 
322 1 322 0.498924 0.860655 0 0 -0.470423 0.0726446 -0.127575 -0.0256481 0 0 1.05745 0 0 
323 1 323 0.498891 0.900702 0 0 -0.463566 0.0602486 -0.129353 0.010438 0 0 1.5268 0 0 
324 1 324 0.498865 0.940744 0 0 -0.440506 0.0440393 -0.127159 0.00459192 0 0 2.86112 0 0 
325 1 325 0.498835 0.980781 0 0 -0.391403 0.0195661 -0.119245 0.00391604 0 0 3.63842 0 0 
326 1 326 0.539982 0.0200023 0 0 -0.00535839 0.0237079 0.00588413 -0.0772165 0 0 0.28853 0 0 
327 1 327 0.539945 0.0600078 0 0 -0.0269992 0.0359618 0.0028799 -0.0757203 0 0 1.21449 0 0 
328 1 328 0.539905 0.100018 0 0 -0.0457356 0.049341 0.00116209 -0.0767891 0 0 1.58603 0 0 