ITEM: TIMESTEP
0
ITEM: NUMBER OF ATOMS
6875
ITEM: BOX BOUNDS sm sm sm
0 4
0 2
0 0
ITEM: ATOMS id type tag x y z damage s11 s22 s33 s12 s13 s23 vx T ienergy 
1 1 1 0.0200009 0.0200017 0 0 0.0337175 0.0373124 0.0227594 0.0127566 0 0 -0.0287748 0 0 
2 1 2 0.0200024 0.0600038 0 0 0.0547076 0.0284029 0.0266349 0.0185136 0 0 -0.32296 0 0 
3 1 3 0.020003 0.100003 0 0 0.0611393 0.0211075 0.0263569 0.0139751 0 0 -0.289915 0 0 
4 1 4 0.0200027 0.140001 0 0 0.0423739 0.00300242 0.0145464 0.00156194 0 0 -0.122722 0 0 
5 1 5 0.020001 0.179999 0 0 0.0192038 0.00272356 0.00703571 -0.0066741 0 0 0.0765448 0 0 
6 1 6 0.0199988 0.219999 0 0 -0.0132368 -0.00111589 -0.00458728 -0.00933561 0 0 -0.0330418 0 0 
7 1 7 0.0199958 0.26 0 0 -0.0536597 -0.0200086 -0.023595 -0.00383262 0 0 -0.234855 0 0 
8 1 8 0.0199945 0.300001 0 0 -0.0782372 -0.0344664 -0.0361055 0.00151072 0 0 -0.294908 0 0 
9 1 9 0.0199934 0.340001 0 0 -0.102676 -0.0567917 -0.0510975 -0.00191083 0 0 -0.0546756 0 0 
10 1 10 0.0199927 0.379998 0 0 -0.11616 -0.0678777 -0.0589752 -0.00586961 0 0 -0.268072 0 0 
11 1 11 0.0199905 0.419996 0 0 -0.150281 -0.086557 -0.0759107 -0.0247519 0 0 -0.118879 0 0 
12 1 12 0.0199878 0.459995 0 0 -0.183089 -0.088091 -0.0869299 -0.0238305 0 0 -0.327288 0 0 
13 1 13 0.0199853 0.499995 0 0 -0.213544 -0.0959232 -0.0992164 -0.0277624 0 0 -0.155373 0 0 
14 1 14 0.0199809 0.539998 0 0 -0.25274 -0.0902353 -0.109972 -0.0163701 0 0 -0.184893 0 0 
15 1 15 0.0199775 0.580002 0 0 -0.267529 -0.10651 -0.119945 0.0121712 0 0 -1.08051 0 0 
16 1 16 0.0199755 0.620006 0 0 -0.265047 -0.0892794 -0.113619 0.019604 0 0 -0.988184 0 0 
17 1 17 0.0199735 0.660011 0 0 -0.277019 -0.113505 -0.12524 0.0508591 0 0 -1.77249 0 0 
18 1 18 0.0199768 0.700013 0 0 -0.24721 -0.103882 -0.112581 0.056609 0 0 -1.43996 0 0 
19 1 19 0.0199774 0.740015 0 0 -0.263567 -0.115713 -0.121629 0.0561373 0 0 -0.692887 0 0 
20 1 20 0.0199785 0.780016 0 0 -0.273583 -0.117952 -0.125563 0.0712679 0 0 -0.753964 0 0 
21 1 21 0.0199804 0.820018 0 0 -0.266142 -0.119918 -0.123804 0.0744883 0 0 -0.209512 0 0 
22 1 22 0.0199792 0.860021 0 0 -0.296603 -0.0928164 -0.124883 0.0773847 0 0 0.828778 0 0 
23 1 23 0.0199765 0.900027 0 0 -0.345881 -0.164301 -0.163665 0.117576 0 0 -0.560112 0 0 
24 1 24 0.0199766 0.940029 0 0 -0.349575 -0.108343 -0.146884 0.106914 0 0 0.654177 0 0 
25 1 25 0.0199567 0.980048 0 0 -0.56672 -0.136863 -0.235816 0.127789 0 0 0.148235 0 0 
26 1 26 0.0600032 0.0200031 0 0 0.0303192 0.0563549 0.0277709 0.0119688 0 0 -0.0110417 0 0 
27 1 27 0.0600093 0.0600076 0 0 0.0316684 0.0222295 0.0172749 0.0109571 0 0 -0.295468 0 0 
28 1 28 0.0600132 0.100007 0 0 0.0576133 0.0160587 0.0236103 0.00806115 0 0 -0.00210489 0 0 
29 1 29 0.0600116 0.140004 0 0 0.0484178 -0.0106485 0.0121136 -0.00756548 0 0 -0.154711 0 0 
30 1 30 0.0600046 0.18 0 0 0.0182456 -0.000280397 0.00576639 -0.0106362 0 0 -0.0340048 0 0 
31 1 31 0.0599962 0.22 0 0 -0.0270737 0.00261939 -0.00782505 -0.0122147 0 0 -0.207197 0 0 
32 1 32 0.0599884 0.260003 0 0 -0.0635922 -0.0107138 -0.0238023 0.00207486 0 0 -0.41261 0 0 
33 1 33 0.0599856 0.300005 0 0 -0.0723405 -0.0220775 -0.0302483 0.0163276 0 0 -0.503975 0 0 
34 1 34 0.0599833 0.340006 0 0 -0.0891396 -0.0575814 -0.0470156 0.014049 0 0 -0.0247032 0 0 
35 1 35 0.0599815 0.380002 0 0 -0.0994917 -0.0709997 -0.0546367 0.0227736 0 0 -0.365942 0 0 
36 1 36 0.0599761 0.419998 0 0 -0.133145 -0.0968315 -0.0737138 -0.00255561 0 0 0.351046 0 0 
37 1 37 0.0599675 0.459995 0 0 -0.165255 -0.0764686 -0.0774849 0.0118215 0 0 -0.0415919 0 0 
38 1 38 0.05996 0.499996 0 0 -0.216542 -0.0891387 -0.0980066 0.00337527 0 0 0.136196 0 0 
39 1 39 0.0599512 0.540002 0 0 -0.243613 -0.0460128 -0.0928541 0.00841052 0 0 0.707517 0 0 
40 1 40 0.0599493 0.580013 0 0 -0.283867 -0.0788735 -0.11632 0.0484825 0 0 0.000466187 0 0 
41 1 41 0.0599517 0.620024 0 0 -0.276207 -0.0494736 -0.104424 0.0330007 0 0 2.06975 0 0 
42 1 42 0.0599522 0.660034 0 0 -0.285737 -0.0900261 -0.1205 0.0724359 0 0 1.45171 0 0 
43 1 43 0.0599579 0.70004 0 0 -0.268885 -0.091807 -0.115663 0.0665942 0 0 2.05381 0 0 
44 1 44 0.059955 0.740045 0 0 -0.265809 -0.102334 -0.118055 0.056611 0 0 2.3202 0 0 
45 1 45 0.059951 0.78005 0 0 -0.263985 -0.0900173 -0.113515 0.0750293 0 0 1.33251 0 0 
46 1 46 0.0599475 0.820056 0 0 -0.314426 -0.108176 -0.135537 0.0755346 0 0 1.31682 0 0 
47 1 47 0.0599392 0.860066 0 0 -0.30125 -0.0502823 -0.112724 0.0722232 0 0 1.89718 0 0 
48 1 48 0.0599329 0.900079 0 0 -0.341423 -0.0976416 -0.140819 0.123665 0 0 0.354633 0 0 
49 1 49 0.0599221 0.940096 0 0 -0.408685 -0.0443989 -0.145327 0.0922803 0 0 1.70608 0 0 
50 1 50 0.05988 0.980127 0 0 -0.400581 0.0450282 -0.114018 0.0237532 0 0 0.843944 0 0 
51 1 51 0.100003 0.0200022 0 0 0.0252862 0.0455148 0.0226757 0.0122279 0 0 -0.568568 0 0 
52 1 52 0.10001 0.0600069 0 0 0.0320864 0.0289582 0.0195575 0.0153248 0 0 -1.01183 0 0 
53 1 53 0.100019 0.100007 0 0 0.0489453 0.0237414 0.0232922 0.0141703 0 0 0.0194198 0 0 
54 1 54 0.100018 0.140007 0 0 0.0322469 -0.00401004 0.00905675 -0.012201 0 0 0.156272 0 0 
55 1 55 0.100006 0.180005 0 0 0.0037026 0.00704736 0.00345238 -0.0154612 0 0 0.0742898 0 0 
56 1 56 0.0999897 0.220008 0 0 -0.0369947 0.00871542 -0.00905175 -0.0142073 0 0 -0.40876 0 0 
57 1 57 0.0999776 0.260012 0 0 -0.0642973 -1.409e-05 -0.0206005 0.00953838 0 0 -0.820702 0 0 
58 1 58 0.0999735 0.300016 0 0 -0.0789356 -0.012644 -0.029342 0.0236531 0 0 -0.893098 0 0 
59 1 59 0.0999717 0.340018 0 0 -0.0978781 -0.0538477 -0.0486249 0.0242697 0 0 -0.213174 0 0 
60 1 60 0.0999692 0.380016 0 0 -0.100536 -0.0566411 -0.0503711 0.0348751 0 0 -0.409981 0 0 
61 1 61 0.0999612 0.420014 0 0 -0.125479 -0.0848751 -0.0674231 0.0120027 0 0 0.165271 0 0 
62 1 62 0.0999458 0.460013 0 0 -0.146253 -0.0536888 -0.0640855 0.0232426 0 0 -0.324245 0 0 
63 1 63 0.0999299 0.500017 0 0 -0.202888 -0.0690585 -0.0871848 0.0217137 0 0 -0.528916 0 0 
64 1 64 0.0999117 0.540025 0 0 -0.21876 -0.0257736 -0.0783875 0.0251203 0 0 -0.320963 0 0 
65 1 65 0.0999011 0.580037 0 0 -0.255297 -0.0449573 -0.0962647 0.0673309 0 0 -2.10167 0 0 
66 1 66 0.0998978 0.620051 0 0 -0.246286 -0.0189987 -0.0850437 0.0517091 0 0 -1.35405 0 0 
67 1 67 0.0998985 0.660063 0 0 -0.248243 -0.0631171 -0.0998272 0.0952819 0 0 -2.44178 0 0 
68 1 68 0.0999077 0.700072 0 0 -0.235578 -0.0486454 -0.091121 0.0779291 0 0 -1.12251 0 0 
69 1 69 0.0999083 0.74008 0 0 -0.254401 -0.0868286 -0.109416 0.0752759 0 0 -0.402653 0 0 
70 1 70 0.0999076 0.780087 0 0 -0.252558 -0.0652532 -0.101901 0.0799006 0 0 -0.0749313 0 0 
71 1 71 0.0998999 0.820098 0 0 -0.298102 -0.0553015 -0.113323 0.058889 0 0 1.38561 0 0 
72 1 72 0.0998893 0.860113 0 0 -0.324646 -0.0577108 -0.122623 0.0875792 0 0 1.09094 0 0 
73 1 73 0.099882 0.900132 0 0 -0.337497 -0.0155351 -0.113201 0.0875714 0 0 1.59304 0 0 
74 1 74 0.0998604 0.940159 0 0 -0.365762 0.0103358 -0.113969 0.0358597 0 0 2.51343 0 0 
75 1 75 0.0998203 0.980185 0 0 -0.320822 -0.00428003 -0.104238 0.0223985 0 0 1.141 0 0 
76 1 76 0.140005 0.0200022 0 0 0.0242352 0.0394563 0.0204012 0.0188479 0 0 -0.238093 0 0 
77 1 77 0.140015 0.0600065 0 0 0.026343 0.0336918 0.0192353 0.0248267 0 0 -0.279464 0 0 
78 1 78 0.140024 0.100009 0 0 0.0210331 0.0301975 0.0164134 0.0234735 0 0 0.256269 0 0 
79 1 79 0.140021 0.140012 0 0 0.00312888 0.0140442 0.00550643 -0.00865236 0 0 0.0553199 0 0 
80 1 80 0.140004 0.180015 0 0 -0.0148168 0.0209839 0.00198102 -0.0150424 0 0 -0.12979 0 0 
81 1 81 0.139983 0.22002 0 0 -0.0416485 0.0125336 -0.00932218 -0.0129732 0 0 -0.28419 0 0 
82 1 82 0.139968 0.260026 0 0 -0.062746 0.00256998 -0.0192767 0.0144319 0 0 -0.81416 0 0 
83 1 83 0.139962 0.30003 0 0 -0.0804651 -0.00788473 -0.028309 0.0254774 0 0 -0.94699 0 0 
84 1 84 0.139961 0.340034 0 0 -0.0898668 -0.0312536 -0.0388145 0.0344536 0 0 -0.274794 0 0 
85 1 85 0.139958 0.380035 0 0 -0.102505 -0.0382687 -0.0451128 0.0321439 0 0 -0.165515 0 0 
86 1 86 0.139947 0.420037 0 0 -0.135159 -0.0559841 -0.0612615 0.0150916 0 0 0.297839 0 0 
87 1 87 0.139927 0.46004 0 0 -0.156875 -0.0436953 -0.0642851 0.016008 0 0 0.0847136 0 0 
88 1 88 0.139904 0.500047 0 0 -0.196926 -0.0398501 -0.0758996 0.0191791 0 0 -0.049708 0 0 
89 1 89 0.139883 0.540057 0 0 -0.213689 -0.0192175 -0.0746569 0.0335742 0 0 0.0351651 0 0 
90 1 90 0.139873 0.580071 0 0 -0.254529 -0.0381151 -0.093824 0.0728914 0 0 -0.312287 0 0 
91 1 91 0.139872 0.620086 0 0 -0.257525 -0.0072558 -0.0848846 0.0749548 0 0 0.772929 0 0 
92 1 92 0.139878 0.660101 0 0 -0.278872 -0.0726172 -0.11271 0.120874 0 0 0.45371 0 0 
93 1 93 0.139886 0.700112 0 0 -0.259436 -0.0364633 -0.0948697 0.0959099 0 0 1.88017 0 0 
94 1 94 0.139884 0.740123 0 0 -0.271373 -0.0782983 -0.112127 0.0972016 0 0 1.61583 0 0 
95 1 95 0.139878 0.780132 0 0 -0.279201 -0.0712187 -0.112368 0.087359 0 0 1.35353 0 0 
96 1 96 0.139862 0.820144 0 0 -0.285057 -0.0395934 -0.104095 0.0529007 0 0 2.59375 0 0 
97 1 97 0.139845 0.86016 0 0 -0.302583 -0.0407247 -0.110083 0.084722 0 0 1.56487 0 0 
98 1 98 0.139831 0.90018 0 0 -0.322736 -0.0040831 -0.104788 0.051945 0 0 2.36332 0 0 
99 1 99 0.139805 0.940205 0 0 -0.316522 0.0143245 -0.0968955 0.0172496 0 0 3.15048 0 0 
100 1 100 0.139774 0.980229 0 0 -0.250861 0.0133627 -0.0761329 0.0200983 0 0 1.60469 0 0 
101 1 101 0.180005 0.0200028 0 0 0.0258683 0.0455635 0.0228908 0.0226511 0 0 -0.201203 0 0 
102 1 102 0.180014 0.0600081 0 0 0.0209556 0.0433581 0.0206097 0.0245521 0 0 -0.201444 0 0 
103 1 103 0.180021 0.100014 0 0 -0.00127564 0.0468932 0.0146158 0.0232065 0 0 0.327518 0 0 
104 1 104 0.180017 0.140022 0 0 -0.0205321 0.0385022 0.00575956 -0.00432779 0 0 0.229606 0 0 
105 1 105 0.179998 0.18003 0 0 -0.0289404 0.0357255 0.0021767 -0.0165311 0 0 -0.0585685 0 0 
106 1 106 0.179975 0.220037 0 0 -0.0478298 0.0092885 -0.0123435 -0.0115067 0 0 -0.499574 0 0 
107 1 107 0.179957 0.260042 0 0 -0.0639574 0.00673211 -0.0183314 0.0124974 0 0 -1.13872 0 0 
108 1 108 0.179948 0.300048 0 0 -0.0907943 -0.00973892 -0.0322155 0.0312834 0 0 -0.93003 0 0 
109 1 109 0.179946 0.340054 0 0 -0.0984524 -0.011518 -0.0352415 0.0452963 0 0 -0.237762 0 0 
110 1 110 0.179941 0.380059 0 0 -0.122473 -0.0284967 -0.0483825 0.0338002 0 0 -0.015919 0 0 
111 1 111 0.179926 0.420065 0 0 -0.135675 -0.0173336 -0.0490315 0.0219566 0 0 0.180848 0 0 
112 1 112 0.179902 0.460073 0 0 -0.157698 -0.0190643 -0.0566483 0.0180149 0 0 -0.0309419 0 0 
113 1 113 0.179873 0.500083 0 0 -0.190749 -0.0175793 -0.0667733 0.0192001 0 0 -0.313831 0 0 
114 1 114 0.179845 0.540097 0 0 -0.1991 0.00965877 -0.0607155 0.0437226 0 0 -1.11079 0 0 
115 1 115 0.179827 0.580113 0 0 -0.231766 -0.0252942 -0.0824084 0.0741658 0 0 -2.07824 0 0 
116 1 116 0.179819 0.620128 0 0 -0.209579 0.0223521 -0.0600105 0.0932181 0 0 -2.64994 0 0 
117 1 117 0.179825 0.660145 0 0 -0.226235 -0.0318649 -0.0827438 0.126616 0 0 -3.25336 0 0 
118 1 118 0.179834 0.700158 0 0 -0.22447 -0.0142572 -0.0765284 0.102711 0 0 -1.7068 0 0 
119 1 119 0.179837 0.740171 0 0 -0.22801 -0.0458785 -0.0878068 0.104312 0 0 -1.401 0 0 
120 1 120 0.179833 0.780181 0 0 -0.236766 -0.0453912 -0.0904597 0.0728387 0 0 -0.107284 0 0 
121 1 121 0.179816 0.820192 0 0 -0.259642 -0.052757 -0.100162 0.0496987 0 0 1.10201 0 0 
122 1 122 0.1798 0.860204 0 0 -0.262022 -0.0389921 -0.0965071 0.0633359 0 0 1.00356 0 0 
123 1 123 0.179782 0.900221 0 0 -0.273334 0.00273314 -0.0867486 0.0191119 0 0 3.06124 0 0 
124 1 124 0.179757 0.940242 0 0 -0.270838 -0.0114842 -0.0905242 0.0145338 0 0 3.09857 0 0 
125 1 125 0.179737 0.980259 0 0 -0.200242 0.0113161 -0.0605588 0.0193606 0 0 2.06903 0 0 
126 1 126 0.220005 0.0200033 0 0 0.0121139 0.0448607 0.0182591 0.020867 0 0 0.310349 0 0 
127 1 127 0.220013 0.0600104 0 0 -0.00653726 0.0499286 0.0139124 0.0175752 0 0 0.58343 0 0 
128 1 128 0.220016 0.100021 0 0 -0.0295871 0.064586 0.0112203 0.0124211 0 0 0.906588 0 0 
129 1 129 0.220008 0.140034 0 0 -0.0464928 0.0630964 0.00532389 -0.00219635 0 0 0.189035 0 0 
130 1 130 0.219989 0.180047 0 0 -0.0516294 0.0470419 -0.00146641 -0.0155509 0 0 -0.0909871 0 0 
131 1 131 0.219965 0.220056 0 0 -0.0637066 0.00977298 -0.0172762 -0.00186253 0 0 -0.400054 0 0 
132 1 132 0.219946 0.260063 0 0 -0.0636678 0.018066 -0.0146052 0.0152636 0 0 -0.718002 0 0 
133 1 133 0.219935 0.30007 0 0 -0.0951816 -0.000854312 -0.0307726 0.0385395 0 0 -0.470652 0 0 
134 1 134 0.21993 0.340078 0 0 -0.111416 0.0064286 -0.033644 0.0571653 0 0 -0.330944 0 0 
135 1 135 0.219922 0.380089 0 0 -0.138534 0.00258877 -0.0435669 0.0427548 0 0 0.319532 0 0 
136 1 136 0.219904 0.4201 0 0 -0.161066 -0.00107176 -0.0519626 0.0422484 0 0 0.387276 0 0 
137 1 137 0.219878 0.460114 0 0 -0.170884 0.0150559 -0.0499402 0.0293771 0 0 0.573258 0 0 
138 1 138 0.219844 0.500128 0 0 -0.207306 -0.0151311 -0.0713034 0.0350477 0 0 0.127679 0 0 
139 1 139 0.219817 0.540144 0 0 -0.19937 0.0192843 -0.0577191 0.0603148 0 0 -0.277164 0 0 
140 1 140 0.219801 0.580161 0 0 -0.240827 -0.0228409 -0.0845321 0.0760665 0 0 0.126403 0 0 
141 1 141 0.219796 0.620175 0 0 -0.253638 -0.0212181 -0.0881234 0.108956 0 0 -0.116128 0 0 
142 1 142 0.219805 0.660191 0 0 -0.264838 -0.0406283 -0.0979445 0.12269 0 0 0.179548 0 0 
143 1 143 0.219812 0.700204 0 0 -0.267778 -0.0406232 -0.0988832 0.0981566 0 0 0.982518 0 0 
144 1 144 0.219813 0.740216 0 0 -0.265588 -0.0720337 -0.10826 0.102988 0 0 0.0919696 0 0 
145 1 145 0.219807 0.780224 0 0 -0.23601 -0.0468861 -0.0906951 0.0491619 0 0 1.34181 0 0 
146 1 146 0.219786 0.820233 0 0 -0.232432 -0.0743764 -0.0983666 0.0328292 0 0 1.54422 0 0 
147 1 147 0.219767 0.86024 0 0 -0.232847 -0.0588191 -0.0935104 0.0325193 0 0 1.28369 0 0 
148 1 148 0.219744 0.900252 0 0 -0.228711 -0.0101217 -0.0765574 -0.0140579 0 0 3.13312 0 0 
149 1 149 0.219719 0.940266 0 0 -0.218557 -0.0308162 -0.079952 0.00141913 0 0 2.83331 0 0 
150 1 150 0.219706 0.980278 0 0 -0.184945 -0.00426811 -0.0606509 0.00960643 0 0 2.89388 0 0 
151 1 151 0.260003 0.020004 0 0 0.0196869 0.0552277 0.024002 0.0162099 0 0 0.618053 0 0 
152 1 152 0.260006 0.0600128 0 0 -0.00254899 0.069316 0.0214003 0.00589297 0 0 0.803676 0 0 
153 1 153 0.260002 0.100028 0 0 -0.0463423 0.087415 0.0131688 -0.00519961 0 0 0.961554 0 0 
154 1 154 0.259991 0.140046 0 0 -0.0848475 0.0790784 -0.00183976 -0.00656414 0 0 0.0850215 0 0 
155 1 155 0.259973 0.180064 0 0 -0.0795941 0.0652272 -0.00459681 -0.0125479 0 0 0.142158 0 0 
156 1 156 0.259952 0.220077 0 0 -0.0802481 0.0247555 -0.0177735 0.00134236 0 0 0.0776107 0 0 
157 1 157 0.259932 0.260087 0 0 -0.0827186 0.0255932 -0.0182953 0.0150922 0 0 -0.272861 0 0 
158 1 158 0.259917 0.300098 0 0 -0.111805 0.0121674 -0.0319236 0.0352773 0 0 0.175999 0 0 
159 1 159 0.259908 0.34011 0 0 -0.13098 0.0251593 -0.0339073 0.0630254 0 0 -0.151571 0 0 
160 1 160 0.259897 0.380126 0 0 -0.143114 0.0436981 -0.031855 0.0398286 0 0 0.652071 0 0 
161 1 161 0.259875 0.420143 0 0 -0.169879 0.0252095 -0.0463637 0.0481165 0 0 0.192831 0 0 
162 1 162 0.259847 0.460161 0 0 -0.166724 0.0419535 -0.0399877 0.0277513 0 0 0.419255 0 0 
163 1 163 0.25981 0.500179 0 0 -0.185761 0.0154781 -0.0545827 0.0311456 0 0 -0.0419224 0 0 
164 1 164 0.25978 0.540195 0 0 -0.191429 0.000444473 -0.0612191 0.0607571 0 0 -1.37179 0 0 
165 1 165 0.259758 0.58021 0 0 -0.179189 0.00650745 -0.0553485 0.0608727 0 0 -1.39967 0 0 
166 1 166 0.259748 0.620223 0 0 -0.187304 -0.0205966 -0.0666429 0.101496 0 0 -3.04044 0 0 
167 1 167 0.259754 0.660234 0 0 -0.190052 -0.0177714 -0.0666165 0.106254 0 0 -3.34928 0 0 
168 1 168 0.259762 0.700245 0 0 -0.189474 -0.0157972 -0.0657942 0.0865783 0 0 -2.64023 0 0 
169 1 169 0.259768 0.740255 0 0 -0.211331 -0.0628265 -0.0878932 0.0894886 0 0 -3.00367 0 0 
170 1 170 0.259768 0.780261 0 0 -0.194251 -0.0458207 -0.0769564 0.0397813 0 0 -1.05096 0 0 
171 1 171 0.259754 0.820265 0 0 -0.182251 -0.0815355 -0.0845621 0.0244729 0 0 -0.129828 0 0 
172 1 172 0.259735 0.860268 0 0 -0.182255 -0.0588751 -0.0772981 0.00397396 0 0 0.999782 0 0 
173 1 173 0.25971 0.900273 0 0 -0.187437 -0.0426962 -0.0737673 -0.020363 0 0 2.38193 0 0 
174 1 174 0.25969 0.940281 0 0 -0.167125 -0.031738 -0.0637494 0.0021249 0 0 2.3017 0 0 
175 1 175 0.259679 0.98029 0 0 -0.16142 -0.00527146 -0.0534269 0.000538126 0 0 3.49093 0 0 
176 1 176 0.300002 0.0200051 0 0 0.0123744 0.0665987 0.0253009 0.00977996 0 0 1.13169 0 0 
177 1 177 0.3 0.0600168 0 0 -0.0329692 0.0736128 0.0130287 -0.00611288 0 0 1.56314 0 0 
178 1 178 0.299987 0.100035 0 0 -0.0750326 0.098315 0.00746856 -0.0180102 0 0 1.42996 0 0 
179 1 179 0.29997 0.140057 0 0 -0.102168 0.0999058 -0.00071484 -0.0060257 0 0 0.550133 0 0 
180 1 180 0.299954 0.18008 0 0 -0.0985508 0.0864593 -0.00386603 -0.00130631 0 0 0.557669 0 0 
181 1 181 0.299935 0.220098 0 0 -0.102227 0.0463969 -0.0178795 0.00227401 0 0 0.617042 0 0 
182 1 182 0.299915 0.260113 0 0 -0.106755 0.0346791 -0.0230844 0.0142334 0 0 0.517923 0 0 
183 1 183 0.299898 0.300127 0 0 -0.11365 0.0396947 -0.0236876 0.0276835 0 0 1.21215 0 0 
184 1 184 0.299885 0.340143 0 0 -0.144012 0.0418863 -0.0327169 0.0526042 0 0 0.409071 0 0 
185 1 185 0.299869 0.380163 0 0 -0.162837 0.0621452 -0.0322583 0.0277339 0 0 0.914662 0 0 
186 1 186 0.299845 0.420185 0 0 -0.182089 0.0484423 -0.0428266 0.0337754 0 0 0.446611 0 0 
187 1 187 0.299817 0.460207 0 0 -0.19144 0.0355245 -0.0499739 0.0148151 0 0 0.493389 0 0 
188 1 188 0.299782 0.500225 0 0 -0.180201 0.0293309 -0.0483599 0.0128213 0 0 0.489719 0 0 
189 1 189 0.299754 0.540241 0 0 -0.203572 -0.023435 -0.0727745 0.0403748 0 0 -0.28679 0 0 
190 1 190 0.299737 0.580252 0 0 -0.213095 -0.0301792 -0.0779903 0.0448485 0 0 0.438688 0 0 
191 1 191 0.299732 0.620262 0 0 -0.237016 -0.0637972 -0.0964496 0.0791038 0 0 0.0374359 0 0 
192 1 192 0.299737 0.66027 0 0 -0.266762 -0.074631 -0.109471 0.081324 0 0 -0.155421 0 0 
193 1 193 0.299744 0.700278 0 0 -0.258239 -0.0687859 -0.104858 0.0761674 0 0 -0.584458 0 0 
194 1 194 0.299749 0.740285 0 0 -0.243771 -0.0832875 -0.10487 0.0696004 0 0 -1.06029 0 0 
195 1 195 0.299747 0.78029 0 0 -0.214881 -0.0761402 -0.0933045 0.0388134 0 0 -0.247663 0 0 
196 1 196 0.299736 0.820291 0 0 -0.182714 -0.0968749 -0.0896341 0.0260555 0 0 -0.0461647 0 0 
197 1 197 0.299716 0.860291 0 0 -0.159075 -0.0621522 -0.0709144 -0.0114348 0 0 1.3407 0 0 
198 1 198 0.299688 0.900293 0 0 -0.157382 -0.0648204 -0.0712241 -0.0101918 0 0 1.61596 0 0 
199 1 199 0.299668 0.940296 0 0 -0.14254 -0.0333859 -0.0563919 0.00674739 0 0 2.15175 0 0 
200 1 200 0.299653 0.980304 0 0 -0.172966 -0.0212759 -0.0622607 0.000568905 0 0 3.90668 0 0 
201 1 201 0.339998 0.0200061 0 0 0.0146849 0.0819663 0.0309622 -0.00712979 0 0 1.11471 0 0 
202 1 202 0.339986 0.0600209 0 0 -0.0325118 0.0964468 0.0204874 -0.0312272 0 0 1.56805 0 0 
203 1 203 0.339965 0.100042 0 0 -0.0845393 0.10896 0.00783076 -0.0418706 0 0 1.44674 0 0 
204 1 204 0.339943 0.140068 0 0 -0.116267 0.119964 0.00119276 -0.0186967 0 0 0.948325 0 0 
205 1 205 0.339928 0.180094 0 0 -0.132633 0.0867116 -0.0147082 -0.0048483 0 0 0.939954 0 0 
206 1 206 0.339912 0.220117 0 0 -0.11721 0.0761789 -0.0131378 -0.00632907 0 0 1.30147 0 0 
207 1 207 0.339894 0.260136 0 0 -0.117274 0.0477479 -0.0222677 0.00132386 0 0 1.65231 0 0 
208 1 208 0.339875 0.300153 0 0 -0.120334 0.0578896 -0.0199961 0.00434584 0 0 1.87916 0 0 
209 1 209 0.339856 0.340172 0 0 -0.153092 0.0501527 -0.0329751 0.0170872 0 0 0.75313 0 0 
210 1 210 0.339837 0.380195 0 0 -0.168164 0.0714528 -0.0309784 -0.00106864 0 0 0.804615 0 0 
211 1 211 0.339811 0.420218 0 0 -0.177822 0.0605579 -0.0375692 0.000114474 0 0 0.19945 0 0 
212 1 212 0.339782 0.460241 0 0 -0.183204 0.0442625 -0.0445257 -0.0182309 0 0 0.136942 0 0 
213 1 213 0.339749 0.500259 0 0 -0.177193 0.0184852 -0.0508683 -0.0147699 0 0 -0.331498 0 0 
214 1 214 0.33972 0.540273 0 0 -0.172214 -0.0150471 -0.0600231 -0.00217052 0 0 -1.08576 0 0 
215 1 215 0.339699 0.580282 0 0 -0.163353 -0.0224564 -0.0595564 0.0110534 0 0 -1.5176 0 0 
216 1 216 0.339689 0.620289 0 0 -0.163438 -0.0483706 -0.0678951 0.0432783 0 0 -2.94335 0 0 
217 1 217 0.33969 0.660295 0 0 -0.163394 -0.0300695 -0.0620087 0.0425688 0 0 -3.48279 0 0 
218 1 218 0.339697 0.700301 0 0 -0.187862 -0.0584046 -0.0789452 0.059835 0 0 -4.63509 0 0 
219 1 219 0.339708 0.740307 0 0 -0.183038 -0.0443202 -0.0728805 0.0489143 0 0 -4.15002 0 0 
220 1 220 0.339713 0.780312 0 0 -0.178945 -0.066153 -0.0785708 0.0385596 0 0 -2.95147 0 0 
221 1 221 0.33971 0.820313 0 0 -0.159684 -0.0779385 -0.0761712 0.027688 0 0 -1.96532 0 0 
222 1 222 0.339693 0.860314 0 0 -0.138319 -0.053486 -0.0614791 -0.0146239 0 0 0.420238 0 0 
223 1 223 0.339668 0.900315 0 0 -0.127874 -0.0642772 -0.0615876 0.0058024 0 0 0.471627 0 0 
224 1 224 0.339649 0.940316 0 0 -0.105306 -0.0188002 -0.0397746 0.00963501 0 0 1.74745 0 0 
225 1 225 0.339631 0.980323 0 0 -0.119556 -0.0123723 -0.042277 0.00118864 0 0 3.28221 0 0 
226 1 226 0.379994 0.0200066 0 0 0.000362123 0.0805556 0.0259254 -0.0287036 0 0 1.26109 0 0 
227 1 227 0.379974 0.060023 0 0 -0.050847 0.104528 0.0172037 -0.0532892 0 0 2.0725 0 0 
228 1 228 0.379944 0.100046 0 0 -0.0945874 0.112774 0.00583245 -0.0650268 0 0 1.77824 0 0 
229 1 229 0.379917 0.140073 0 0 -0.113576 0.129671 0.00516333 -0.0357741 0 0 1.36612 0 0 
230 1 230 0.379901 0.180102 0 0 -0.127795 0.100164 -0.00884894 -0.0181854 0 0 1.47507 0 0 
231 1 231 0.379888 0.220126 0 0 -0.114684 0.099046 -0.00500433 -0.0215271 0 0 1.8868 0 0 
232 1 232 0.379871 0.260149 0 0 -0.123475 0.0606831 -0.0201134 -0.0265196 0 0 2.46036 0 0 
233 1 233 0.379851 0.300168 0 0 -0.132379 0.0570254 -0.0241371 -0.0318337 0 0 2.355 0 0 
234 1 234 0.379829 0.340188 0 0 -0.1514 0.0601322 -0.0292366 -0.0276873 0 0 1.30608 0 0 
235 1 235 0.379805 0.380211 0 0 -0.173556 0.0669029 -0.0341659 -0.0423264 0 0 0.887649 0 0 
236 1 236 0.379778 0.420233 0 0 -0.195495 0.0476711 -0.0473657 -0.0384233 0 0 -0.0585371 0 0 
237 1 237 0.37975 0.460256 0 0 -0.198149 0.0388937 -0.0510345 -0.0582869 0 0 0.179412 0 0 
238 1 238 0.379719 0.500274 0 0 -0.210338 -0.010127 -0.0706688 -0.0467878 0 0 -0.23384 0 0 
239 1 239 0.379696 0.540286 0 0 -0.219728 -0.0445 -0.0847077 -0.0383896 0 0 -0.0466689 0 0 
240 1 240 0.37968 0.580294 0 0 -0.233756 -0.0594809 -0.0940163 -0.0245139 0 0 0.50133 0 0 
241 1 241 0.379675 0.6203 0 0 -0.275973 -0.106605 -0.122695 0.00798268 0 0 0.0598601 0 0 
242 1 242 0.379676 0.660306 0 0 -0.282141 -0.0809347 -0.116432 0.00970886 0 0 -0.150089 0 0 
243 1 243 0.37968 0.700313 0 0 -0.292309 -0.108426 -0.128521 0.0396875 0 0 -1.96714 0 0 
244 1 244 0.379688 0.740319 0 0 -0.261775 -0.0703184 -0.106487 0.0314509 0 0 -2.10764 0 0 
245 1 245 0.379693 0.780326 0 0 -0.236563 -0.0817079 -0.10205 0.0354008 0 0 -2.14356 0 0 
246 1 246 0.379692 0.820331 0 0 -0.194777 -0.0660031 -0.0836022 0.0217647 0 0 -1.51082 0 0 
247 1 247 0.379676 0.860335 0 0 -0.157123 -0.0485885 -0.0659407 -0.0132868 0 0 0.350441 0 0 
248 1 248 0.379653 0.900338 0 0 -0.129175 -0.0502919 -0.0575218 0.0144372 0 0 0.243789 0 0 
249 1 249 0.379635 0.940341 0 0 -0.103004 -0.0116835 -0.0367548 0.014168 0 0 1.89181 0 0 
250 1 250 0.379615 0.980347 0 0 -0.0947671 -0.0229378 -0.0377163 0.0159304 0 0 2.51529 0 0 
251 1 251 0.419987 0.0200067 0 0 0.00173096 0.0820448 0.0268413 -0.0548504 0 0 0.991602 0 0 
252 1 252 0.419956 0.0600234 0 0 -0.046422 0.108897 0.020022 -0.074549 0 0 1.62494 0 0 
253 1 253 0.419919 0.100047 0 0 -0.0834999 0.114054 0.00979504 -0.0890754 0 0 1.56349 0 0 
254 1 254 0.419889 0.140072 0 0 -0.102345 0.117665 0.00491476 -0.0564739 0 0 1.67692 0 0 
255 1 255 0.419873 0.180099 0 0 -0.114461 0.109713 -0.00151659 -0.0419205 0 0 1.89282 0 0 
256 1 256 0.41986 0.220124 0 0 -0.119013 0.0990436 -0.00639322 -0.0453045 0 0 2.01834 0 0 
257 1 257 0.419846 0.260147 0 0 -0.122198 0.0695785 -0.016855 -0.0562431 0 0 2.73555 0 0 
258 1 258 0.419825 0.300168 0 0 -0.124626 0.065372 -0.0189806 -0.0687017 0 0 2.5726 0 0 
259 1 259 0.419799 0.340188 0 0 -0.153993 0.0544051 -0.0319072 -0.0720962 0 0 1.20161 0 0 
260 1 260 0.41977 0.38021 0 0 -0.181191 0.0572099 -0.0397235 -0.088295 0 0 0.506309 0 0 
261 1 261 0.419741 0.420232 0 0 -0.207565 0.0341541 -0.0555723 -0.0776791 0 0 -0.694042 0 0 
262 1 262 0.419713 0.460252 0 0 -0.211007 0.022271 -0.0604889 -0.095229 0 0 -0.554539 0 0 
263 1 263 0.419684 0.500269 0 0 -0.211133 -0.0116984 -0.0714265 -0.0815087 0 0 -0.85867 0 0 
264 1 264 0.41966 0.540281 0 0 -0.207527 -0.0358347 -0.0780112 -0.0742411 0 0 -0.776438 0 0 
265 1 265 0.419639 0.58029 0 0 -0.198835 -0.0458748 -0.0784433 -0.0574762 0 0 -1.23424 0 0 
266 1 266 0.419628 0.620297 0 0 -0.194776 -0.0543771 -0.0798739 -0.0291423 0 0 -2.53666 0 0 
267 1 267 0.419625 0.660305 0 0 -0.186579 -0.0269845 -0.0684568 -0.0219497 0 0 -3.44683 0 0 
268 1 268 0.41963 0.700313 0 0 -0.209153 -0.0533303 -0.0841491 0.0134957 0 0 -5.17751 0 0 
269 1 269 0.419643 0.740323 0 0 -0.201402 -0.021756 -0.0715327 0.0104919 0 0 -4.56535 0 0 
270 1 270 0.419653 0.780333 0 0 -0.209252 -0.0511276 -0.083475 0.0281017 0 0 -4.30779 0 0 
271 1 271 0.41966 0.820342 0 0 -0.183328 -0.0181891 -0.0645923 0.00860969 0 0 -2.85584 0 0 
272 1 272 0.41965 0.860351 0 0 -0.1632 -0.02932 -0.0617101 -0.014174 0 0 -0.975241 0 0 
273 1 273 0.419634 0.900358 0 0 -0.126838 -0.019748 -0.0469786 0.00596158 0 0 -0.500135 0 0 
274 1 274 0.41962 0.940365 0 0 -0.075026 0.0118304 -0.0202491 0.0071816 0 0 1.11286 0 0 
275 1 275 0.419606 0.980369 0 0 -0.018324 -0.0097337 -0.00898285 0.0169175 0 0 0.871273 0 0 
276 1 276 0.459981 0.020006 0 0 -0.00855023 0.0707739 0.019937 -0.0832844 0 0 0.877085 0 0 
277 1 277 0.459942 0.0600216 0 0 -0.0549881 0.0952244 0.0128987 -0.0924735 0 0 1.59604 0 0 
278 1 278 0.4599 0.100042 0 0 -0.0679104 0.0983994 0.00977421 -0.10226 0 0 1.77559 0 0 
279 1 279 0.459867 0.140064 0 0 -0.0756598 0.104094 0.00911629 -0.0736495 0 0 1.94186 0 0 
280 1 280 0.459848 0.180087 0 0 -0.100641 0.0961247 -0.0014401 -0.0622019 0 0 2.00914 0 0 
281 1 281 0.459835 0.22011 0 0 -0.105184 0.105204 1.51514e-05 -0.0641822 0 0 2.24836 0 0 
282 1 282 0.459822 0.260133 0 0 -0.1202 0.0687658 -0.0164726 -0.0743399 0 0 2.87626 0 0 
283 1 283 0.4598 0.300154 0 0 -0.12417 0.0716682 -0.0168163 -0.0974235 0 0 2.51941 0 0 
284 1 284 0.459771 0.340174 0 0 -0.163298 0.0415313 -0.0390191 -0.106636 0 0 1.06811 0 0 
285 1 285 0.459738 0.380194 0 0 -0.186911 0.0432816 -0.0460255 -0.116359 0 0 0.207169 0 0 
286 1 286 0.459706 0.420215 0 0 -0.213776 0.0273063 -0.0597617 -0.106067 0 0 -0.893185 0 0 
287 1 287 0.459677 0.460234 0 0 -0.242603 -0.00711641 -0.0800531 -0.113626 0 0 -0.846503 0 0 
288 1 288 0.459651 0.50025 0 0 -0.249428 -0.0274084 -0.0887554 -0.0968171 0 0 -0.654491 0 0 
289 1 289 0.459631 0.540263 0 0 -0.264887 -0.0537867 -0.102178 -0.0945435 0 0 0.308493 0 0 
290 1 290 0.459615 0.580273 0 0 -0.290673 -0.0807181 -0.119096 -0.0743889 0 0 0.809144 0 0 
291 1 291 0.459607 0.620282 0 0 -0.324464 -0.0982114 -0.135565 -0.0493346 0 0 0.839871 0 0 
292 1 292 0.459604 0.660292 0 0 -0.338458 -0.0866177 -0.136336 -0.0388141 0 0 0.318521 0 0 
293 1 293 0.459608 0.700303 0 0 -0.341766 -0.0986857 -0.141274 -0.00267729 0 0 -1.54678 0 0 
294 1 294 0.459617 0.740316 0 0 -0.302313 -0.0473262 -0.112117 -0.00451634 0 0 -1.84682 0 0 
295 1 295 0.459626 0.78033 0 0 -0.291652 -0.0659323 -0.11467 0.0137141 0 0 -2.80186 0 0 
296 1 296 0.459632 0.820343 0 0 -0.244584 -0.010551 -0.0817909 -0.0063936 0 0 -2.09353 0 0 
297 1 297 0.459626 0.860358 0 0 -0.201774 -0.0256183 -0.0728942 -0.0184915 0 0 -1.07908 0 0 
298 1 298 0.459615 0.900368 0 0 -0.1449 -0.00725345 -0.0487633 -0.0150892 0 0 -0.0688577 0 0 
299 1 299 0.459607 0.940377 0 0 -0.0812519 0.00565716 -0.0242227 -0.00185951 0 0 0.660143 0 0 
300 1 300 0.459607 0.980379 0 0 0.00656317 -0.0177738 -0.00358459 0.0117011 0 0 -0.0633602 0 0 
301 1 301 0.499974 0.0200051 0 0 -0.00469461 0.0601035 0.0177537 -0.109196 0 0 0.214924 0 0 
302 1 302 0.499926 0.0600182 0 0 -0.0344216 0.0861657 0.0165842 -0.103813 0 0 0.636989 0 0 
303 1 303 0.499882 0.100035 0 0 -0.0471945 0.0760729 0.00925788 -0.106346 0 0 1.18578 0 0 
304 1 304 0.499848 0.140051 0 0 -0.0566672 0.0775847 0.00670862 -0.089739 0 0 1.86048 0 0 
305 1 305 0.499826 0.180069 0 0 -0.0837149 0.0749722 -0.00279301 -0.0802103 0 0 2.09128 0 0 
306 1 306 0.499811 0.220089 0 0 -0.0919599 0.0989055 0.00223589 -0.0784535 0 0 2.11874 0 0 
307 1 307 0.499796 0.260111 0 0 -0.119852 0.0671818 -0.0168659 -0.092687 0 0 2.51667 0 0 
308 1 308 0.499773 0.300131 0 0 -0.132987 0.0661549 -0.0214069 -0.117313 0 0 1.99509 0 0 
309 1 309 0.499741 0.340151 0 0 -0.160808 0.0451999 -0.0370431 -0.133029 0 0 0.884807 0 0 
310 1 310 0.499704 0.380171 0 0 -0.192313 0.0300071 -0.0520131 -0.135148 0 0 -0.258352 0 0 
311 1 311 0.499669 0.42019 0 0 -0.210956 0.0225757 -0.0603747 -0.124242 0 0 -1.39403 0 0 
312 1 312 0.499638 0.460209 0 0 -0.232198 -0.00612001 -0.0763973 -0.126675 0 0 -1.25374 0 0 
313 1 313 0.499611 0.500224 0 0 -0.243614 -0.0251584 -0.0861703 -0.105753 0 0 -1.21949 0 0 
314 1 314 0.499588 0.540238 0 0 -0.247771 -0.0395494 -0.0921179 -0.107599 0 0 -0.506367 0 0 
315 1 315 0.499566 0.580249 0 0 -0.239701 -0.0457311 -0.091509 -0.0884648 0 0 -1.00064 0 0 
316 1 316 0.499553 0.62026 0 0 -0.216761 -0.0288812 -0.0787442 -0.0705101 0 0 -1.79326 0 0 
317 1 317 0.499546 0.660273 0 0 -0.210077 -0.0179894 -0.0731059 -0.0577475 0 0 -2.74643 0 0 
318 1 318 0.499551 0.700286 0 0 -0.226746 -0.0266697 -0.0812397 -0.0220898 0 0 -4.13115 0 0 
319 1 319 0.499564 0.740301 0 0 -0.223504 -9.7986e-05 -0.0716755 -0.0198159 0 0 -3.82982 0 0 
320 1 320 0.499578 0.780317 0 0 -0.243158 -0.0226986 -0.085234 -0.00940277 0 0 -4.14364 0 0 
321 1 321 0.499588 0.820334 0 0 -0.224149 0.0191429 -0.0657101 -0.0287667 0 0 -3.27528 0 0 
322 1 322 0.499592 0.86035 0 0 -0.198247 -0.0161858 -0.0687365 -0.0295164 0 0 -2.61844 0 0 
323 1 323 0.499592 0.900362 0 0 -0.133549 0.00099992 -0.0424772 -0.0470289 0 0 -0.758812 0 0 
324 1 324 0.499595 0.940369 0 0 -0.0584868 -0.00139171 -0.0191852 -0.0155234 0 0 -0.76378 0 0 
325 1 325 0.499611 0.980369 0 0 0.039935 -0.0102524 0.00951649 -0.00104915 0 0 -1.05313 0 0 
326 1 326 0.53997 0.020004 0 0 -0.0107752 0.0445323 0.0108189 -0.130917 0 0 -0.0600203 0 0 
327 1 327 0.539917 0.060014 0 0 -0.0382763 0.0585881 0.00651391 -0.107247 0 0 0.400773 0 0 