ITEM: TIMESTEP
0
ITEM: NUMBER OF ATOMS
6875
ITEM: BOX BOUNDS sm sm sm
0 4
0 2
0 0
ITEM: ATOMS id type tag x y z damage s11 s22 s33 s12 s13 s23 vx T ienergy 
1 1 1 0.0199989 0.0200002 0 0 -0.0177076 -0.00619619 -0.00765845 -0.00429358 0 0 -0.0837025 0 0 
2 1 2 0.0199975 0.0599997 0 0 -0.0468447 -0.031076 -0.0249689 -0.00247962 0 0 -0.572399 0 0 
3 1 3 0.0199961 0.0999966 0 0 -0.0763351 -0.0645629 -0.0451575 -0.0181096 0 0 -0.980255 0 0 
4 1 4 0.0199946 0.139991 0 0 -0.106323 -0.0855916 -0.0615168 -0.0391406 0 0 -0.793997 0 0 
5 1 5 0.0199924 0.179986 0 0 -0.14163 -0.100502 -0.0776247 -0.0661219 0 0 -0.722256 0 0 
6 1 6 0.0199885 0.219981 0 0 -0.19703 -0.117641 -0.1009 -0.0889175 0 0 -0.778756 0 0 
7 1 7 0.0199842 0.259978 0 0 -0.262946 -0.141513 -0.129721 -0.102736 0 0 -0.720833 0 0 
8 1 8 0.0199799 0.299976 0 0 -0.324684 -0.158469 -0.154993 -0.110578 0 0 -0.73888 0 0 
9 1 9 0.0199757 0.339975 0 0 -0.389008 -0.185836 -0.184452 -0.112092 0 0 -0.759362 0 0 
10 1 10 0.0199721 0.379976 0 0 -0.441681 -0.200666 -0.206148 -0.109114 0 0 -0.794105 0 0 
11 1 11 0.0199689 0.419977 0 0 -0.494948 -0.229259 -0.232469 -0.103782 0 0 -0.811627 0 0 
12 1 12 0.0199661 0.459978 0 0 -0.533263 -0.23686 -0.247238 -0.0963675 0 0 -0.836563 0 0 
13 1 13 0.0199636 0.49998 0 0 -0.577975 -0.266501 -0.27116 -0.0881734 0 0 -0.84986 0 0 
14 1 14 0.0199612 0.539982 0 0 -0.605992 -0.264646 -0.27958 -0.0785239 0 0 -0.850969 0 0 
15 1 15 0.0199591 0.579985 0 0 -0.647753 -0.296136 -0.303161 -0.0667416 0 0 -0.87199 0 0 
16 1 16 0.0199568 0.619988 0 0 -0.670091 -0.28377 -0.306371 -0.0532416 0 0 -0.812357 0 0 
17 1 17 0.0199547 0.659993 0 0 -0.71117 -0.316496 -0.33014 -0.0329156 0 0 -0.850833 0 0 
18 1 18 0.0199526 0.699998 0 0 -0.728721 -0.293383 -0.328349 -0.0118381 0 0 -0.684177 0 0 
19 1 19 0.0199512 0.740006 0 0 -0.756398 -0.322202 -0.346549 0.0259817 0 0 -0.762916 0 0 
20 1 20 0.0199494 0.780014 0 0 -0.773512 -0.294496 -0.343137 0.0487611 0 0 -0.251398 0 0 
21 1 21 0.0199494 0.820024 0 0 -0.770199 -0.320978 -0.350602 0.117237 0 0 -1.09843 0 0 
22 1 22 0.0199507 0.860034 0 0 -0.757642 -0.268808 -0.32975 0.123458 0 0 0.694485 0 0 
23 1 23 0.0199471 0.900045 0 0 -0.80481 -0.356108 -0.373077 0.203539 0 0 -1.36199 0 0 
24 1 24 0.0199502 0.940052 0 0 -0.762163 -0.266953 -0.330608 0.204236 0 0 0.0784602 0 0 
25 1 25 0.0199202 0.980081 0 0 -1.12131 -0.284901 -0.45219 0.239207 0 0 -0.547695 0 0 
26 1 26 0.0599955 0.0199983 0 0 -0.0428818 -0.0398706 -0.0265182 -0.0263701 0 0 -0.916533 0 0 
27 1 27 0.0599903 0.0599936 0 0 -0.0904722 -0.0800413 -0.0546549 -0.026186 0 0 -2.27967 0 0 
28 1 28 0.0599889 0.0999857 0 0 -0.0948325 -0.109392 -0.0654658 -0.0347709 0 0 -2.50603 0 0 
29 1 29 0.0599861 0.139973 0 0 -0.103513 -0.135154 -0.0765132 -0.0495025 0 0 -2.18765 0 0 
30 1 30 0.0599786 0.17996 0 0 -0.148711 -0.156062 -0.0977236 -0.0728276 0 0 -2.0855 0 0 
31 1 31 0.059967 0.219947 0 0 -0.19858 -0.156316 -0.113811 -0.089588 0 0 -1.95404 0 0 
32 1 32 0.0599537 0.259939 0 0 -0.2619 -0.17039 -0.138658 -0.0994106 0 0 -1.87927 0 0 
33 1 33 0.0599401 0.299934 0 0 -0.320472 -0.164876 -0.155699 -0.104098 0 0 -1.95441 0 0 
34 1 34 0.0599274 0.339932 0 0 -0.386959 -0.188496 -0.184649 -0.102467 0 0 -2.01217 0 0 
35 1 35 0.0599162 0.379933 0 0 -0.431747 -0.181022 -0.196641 -0.0975088 0 0 -2.08944 0 0 
36 1 36 0.0599065 0.419937 0 0 -0.48969 -0.216188 -0.226576 -0.0897585 0 0 -2.12128 0 0 
37 1 37 0.0598981 0.459941 0 0 -0.518045 -0.200456 -0.230635 -0.0810759 0 0 -2.12641 0 0 
38 1 38 0.0598907 0.499948 0 0 -0.571295 -0.245306 -0.262191 -0.0703588 0 0 -2.12368 0 0 
39 1 39 0.0598836 0.539954 0 0 -0.587907 -0.2144 -0.257593 -0.0605728 0 0 -2.04562 0 0 
40 1 40 0.0598768 0.579963 0 0 -0.643578 -0.265579 -0.291979 -0.045587 0 0 -2.07781 0 0 
41 1 41 0.0598697 0.619973 0 0 -0.655167 -0.216852 -0.280026 -0.0345703 0 0 -1.88438 0 0 
42 1 42 0.0598625 0.659987 0 0 -0.713811 -0.267293 -0.315145 -0.0092765 0 0 -2.02631 0 0 
43 1 43 0.0598553 0.700002 0 0 -0.723148 -0.20555 -0.29827 0.00301427 0 0 -1.54905 0 0 
44 1 44 0.0598494 0.740025 0 0 -0.779573 -0.248451 -0.330256 0.0511229 0 0 -1.95227 0 0 
45 1 45 0.0598447 0.780047 0 0 -0.764516 -0.186175 -0.305352 0.0546832 0 0 -0.626795 0 0 
46 1 46 0.0598422 0.820076 0 0 -0.821128 -0.224958 -0.336074 0.138923 0 0 -1.78822 0 0 
47 1 47 0.059844 0.860103 0 0 -0.786702 -0.183249 -0.311553 0.11951 0 0 0.376462 0 0 
48 1 48 0.0598411 0.900133 0 0 -0.786267 -0.198257 -0.316244 0.215881 0 0 -1.09125 0 0 
49 1 49 0.0598342 0.940167 0 0 -0.886234 -0.154865 -0.334466 0.193394 0 0 0.0432671 0 0 
50 1 50 0.0597726 0.980221 0 0 -0.853819 -0.00308396 -0.275161 0.0690578 0 0 -1.21077 0 0 
51 1 51 0.0999902 0.0199927 0 0 -0.0995779 -0.133392 -0.0746876 -0.0533941 0 0 -1.90964 0 0 
52 1 52 0.0999798 0.0599802 0 0 -0.136801 -0.134692 -0.0870466 -0.0384571 0 0 -3.73627 0 0 
53 1 53 0.0999803 0.0999685 0 0 -0.135018 -0.14608 -0.0901283 -0.0371788 0 0 -3.54433 0 0 
54 1 54 0.0999774 0.139953 0 0 -0.152995 -0.180139 -0.106827 -0.0634803 0 0 -3.31044 0 0 
55 1 55 0.0999654 0.179936 0 0 -0.181892 -0.192773 -0.120158 -0.0847471 0 0 -2.73255 0 0 
56 1 56 0.0999468 0.21992 0 0 -0.215795 -0.183807 -0.128163 -0.0972418 0 0 -2.19577 0 0 
57 1 57 0.0999245 0.259909 0 0 -0.274222 -0.192899 -0.149845 -0.10645 0 0 -2.12132 0 0 
58 1 58 0.0999013 0.299902 0 0 -0.320095 -0.169072 -0.156926 -0.106399 0 0 -2.17862 0 0 
59 1 59 0.09988 0.3399 0 0 -0.380968 -0.186914 -0.182216 -0.101593 0 0 -2.34561 0 0 
60 1 60 0.0998611 0.379902 0 0 -0.415014 -0.160139 -0.184553 -0.0940394 0 0 -2.54338 0 0 
61 1 61 0.0998448 0.419908 0 0 -0.470124 -0.192848 -0.21278 -0.0834513 0 0 -2.72705 0 0 
62 1 62 0.0998307 0.459915 0 0 -0.489677 -0.160584 -0.208694 -0.0735276 0 0 -2.84044 0 0 
63 1 63 0.099818 0.499926 0 0 -0.542505 -0.20408 -0.239668 -0.0604434 0 0 -2.99463 0 0 
64 1 64 0.0998058 0.539937 0 0 -0.555334 -0.162009 -0.230264 -0.0508813 0 0 -3.0008 0 0 
65 1 65 0.0997935 0.579953 0 0 -0.611498 -0.206215 -0.26255 -0.0339035 0 0 -3.20278 0 0 
66 1 66 0.0997805 0.61997 0 0 -0.627149 -0.156455 -0.251576 -0.0250906 0 0 -3.04723 0 0 
67 1 67 0.0997669 0.659994 0 0 -0.685664 -0.186427 -0.280049 0.00155334 0 0 -3.31816 0 0 
68 1 68 0.0997534 0.700019 0 0 -0.706396 -0.142982 -0.27274 0.010462 0 0 -2.72654 0 0 
69 1 69 0.0997406 0.740053 0 0 -0.756056 -0.142298 -0.288502 0.0527741 0 0 -2.96406 0 0 
70 1 70 0.0997322 0.780088 0 0 -0.779129 -0.135735 -0.293817 0.0689097 0 0 -1.82853 0 0 
71 1 71 0.0997262 0.820129 0 0 -0.78086 -0.0893012 -0.279427 0.115194 0 0 -1.41131 0 0 
72 1 72 0.0997254 0.860173 0 0 -0.822704 -0.13544 -0.30775 0.141024 0 0 -0.75408 0 0 
73 1 73 0.099724 0.900218 0 0 -0.807178 -0.0618347 -0.279056 0.173918 0 0 -0.618271 0 0 
74 1 74 0.0997029 0.940275 0 0 -0.817404 -0.0064485 -0.264524 0.0985648 0 0 -0.0965366 0 0 
75 1 75 0.0996445 0.980331 0 0 -0.758502 -0.0452097 -0.258045 0.0640643 0 0 -2.51096 0 0 
76 1 76 0.139984 0.0199871 0 0 -0.141294 -0.226064 -0.117813 -0.0732803 0 0 -2.21129 0 0 
77 1 77 0.139967 0.0599656 0 0 -0.173907 -0.1908 -0.116962 -0.0388182 0 0 -4.46237 0 0 
78 1 78 0.139966 0.0999483 0 0 -0.197832 -0.202143 -0.128285 -0.0375385 0 0 -4.52411 0 0 
79 1 79 0.139963 0.13993 0 0 -0.206969 -0.210247 -0.13382 -0.0678536 0 0 -3.9766 0 0 
80 1 80 0.139949 0.179913 0 0 -0.217786 -0.211808 -0.137794 -0.0896343 0 0 -2.79912 0 0 
81 1 81 0.139925 0.219896 0 0 -0.242189 -0.203336 -0.14291 -0.106566 0 0 -2.04038 0 0 
82 1 82 0.139894 0.259884 0 0 -0.284551 -0.202989 -0.156404 -0.115517 0 0 -1.73116 0 0 
83 1 83 0.139863 0.299877 0 0 -0.316161 -0.169701 -0.155865 -0.113696 0 0 -1.63533 0 0 
84 1 84 0.139834 0.339875 0 0 -0.369373 -0.179623 -0.176148 -0.107563 0 0 -1.82968 0 0 
85 1 85 0.139807 0.379878 0 0 -0.396133 -0.140689 -0.172236 -0.0978691 0 0 -2.04933 0 0 
86 1 86 0.139785 0.419886 0 0 -0.447567 -0.164577 -0.196442 -0.0853599 0 0 -2.31572 0 0 
87 1 87 0.139765 0.459896 0 0 -0.465524 -0.125222 -0.189564 -0.0744495 0 0 -2.49567 0 0 
88 1 88 0.139747 0.499912 0 0 -0.514836 -0.155509 -0.215151 -0.0601604 0 0 -2.7523 0 0 
89 1 89 0.139729 0.539929 0 0 -0.532487 -0.116677 -0.208341 -0.0507917 0 0 -2.83842 0 0 
90 1 90 0.139711 0.579952 0 0 -0.582274 -0.138549 -0.231383 -0.0339175 0 0 -3.14399 0 0 
91 1 91 0.139691 0.619977 0 0 -0.609315 -0.105736 -0.229526 -0.0256615 0 0 -3.08308 0 0 
92 1 92 0.13967 0.660009 0 0 -0.656699 -0.103975 -0.2442 -0.00250285 0 0 -3.35653 0 0 
93 1 93 0.13965 0.700044 0 0 -0.69484 -0.0896828 -0.251871 0.0105693 0 0 -2.98714 0 0 
94 1 94 0.13963 0.740086 0 0 -0.724234 -0.0596295 -0.251659 0.0399302 0 0 -2.68611 0 0 
95 1 95 0.139616 0.780133 0 0 -0.767779 -0.0676919 -0.268263 0.0678984 0 0 -2.07347 0 0 
96 1 96 0.139606 0.820183 0 0 -0.778862 -0.0426585 -0.263774 0.0974379 0 0 -1.00359 0 0 
97 1 97 0.139603 0.860237 0 0 -0.785478 -0.0150405 -0.257016 0.120851 0 0 -0.0177598 0 0 
98 1 98 0.139597 0.900295 0 0 -0.822982 -0.0377251 -0.276382 0.132879 0 0 -0.364299 0 0 
99 1 99 0.139574 0.940354 0 0 -0.778292 0.0340439 -0.238915 0.0551509 0 0 0.229893 0 0 
100 1 100 0.139527 0.980416 0 0 -0.725334 0.000778851 -0.232583 0.0479489 0 0 -3.0775 0 0 
101 1 101 0.179979 0.0199824 0 0 -0.177911 -0.303928 -0.154574 -0.096786 0 0 -2.12361 0 0 
102 1 102 0.179953 0.0599517 0 0 -0.216051 -0.260773 -0.152963 -0.0520009 0 0 -4.43648 0 0 
103 1 103 0.179948 0.0999283 0 0 -0.242374 -0.246319 -0.156776 -0.0386974 0 0 -4.49962 0 0 
104 1 104 0.179943 0.139909 0 0 -0.244713 -0.222262 -0.1498 -0.062582 0 0 -3.70436 0 0 
105 1 105 0.179927 0.179892 0 0 -0.257551 -0.227048 -0.15546 -0.0854971 0 0 -2.26661 0 0 
106 1 106 0.1799 0.219877 0 0 -0.265633 -0.210218 -0.15265 -0.104649 0 0 -1.10167 0 0 
107 1 107 0.179864 0.259865 0 0 -0.290348 -0.205392 -0.159038 -0.114499 0 0 -0.447791 0 0 
108 1 108 0.179826 0.299857 0 0 -0.310932 -0.169321 -0.154063 -0.114019 0 0 -0.232933 0 0 
109 1 109 0.179789 0.339856 0 0 -0.352859 -0.169034 -0.167439 -0.10785 0 0 -0.436 0 0 
110 1 110 0.179756 0.379859 0 0 -0.373154 -0.123189 -0.159231 -0.0979854 0 0 -0.755254 0 0 
111 1 111 0.179727 0.419869 0 0 -0.418028 -0.133042 -0.176814 -0.0855842 0 0 -1.21209 0 0 
112 1 112 0.179701 0.459883 0 0 -0.436685 -0.090654 -0.169189 -0.0753293 0 0 -1.60235 0 0 
113 1 113 0.179677 0.499903 0 0 -0.481057 -0.102953 -0.187399 -0.0621992 0 0 -2.09316 0 0 
114 1 114 0.179653 0.539926 0 0 -0.505771 -0.0697156 -0.18466 -0.0545985 0 0 -2.41122 0 0 
115 1 115 0.179628 0.579955 0 0 -0.550212 -0.0716208 -0.199555 -0.0402706 0 0 -2.92615 0 0 
116 1 116 0.179601 0.619988 0 0 -0.586313 -0.0498398 -0.204158 -0.0338547 0 0 -3.07846 0 0 
117 1 117 0.179572 0.660028 0 0 -0.628344 -0.0381113 -0.2139 -0.0150688 0 0 -3.40074 0 0 
118 1 118 0.179544 0.700072 0 0 -0.668449 -0.0238781 -0.222218 -0.00306345 0 0 -3.16083 0 0 
119 1 119 0.179518 0.740121 0 0 -0.707658 -0.0207797 -0.23383 0.0220657 0 0 -2.77186 0 0 
120 1 120 0.179498 0.780174 0 0 -0.721624 0.0103453 -0.228312 0.0450557 0 0 -1.9244 0 0 
121 1 121 0.179484 0.820231 0 0 -0.772125 -0.0222024 -0.255024 0.0681648 0 0 -0.88559 0 0 
122 1 122 0.179477 0.860289 0 0 -0.7644 0.036727 -0.233583 0.083567 0 0 -0.298513 0 0 
123 1 123 0.17947 0.900353 0 0 -0.775986 0.017899 -0.243365 0.0779125 0 0 0.061909 0 0 
124 1 124 0.179448 0.940415 0 0 -0.758064 0.0312985 -0.233293 0.0341176 0 0 -0.232358 0 0 
125 1 125 0.179411 0.980475 0 0 -0.700335 0.0229526 -0.217414 0.0337585 0 0 -3.45063 0 0 
126 1 126 0.219974 0.0199784 0 0 -0.199441 -0.365167 -0.181165 -0.114324 0 0 -1.52732 0 0 
127 1 127 0.219939 0.0599405 0 0 -0.224935 -0.302677 -0.169278 -0.0589885 0 0 -3.28623 0 0 
128 1 128 0.219927 0.0999131 0 0 -0.260706 -0.268652 -0.169839 -0.0350725 0 0 -3.66987 0 0 
129 1 129 0.219918 0.139893 0 0 -0.274514 -0.228672 -0.161431 -0.0525677 0 0 -3.116 0 0 
130 1 130 0.219901 0.179878 0 0 -0.282929 -0.228166 -0.163972 -0.0715558 0 0 -1.43577 0 0 
131 1 131 0.219872 0.219864 0 0 -0.276457 -0.203775 -0.154057 -0.0919445 0 0 0.0550318 0 0 
132 1 132 0.219833 0.259854 0 0 -0.293954 -0.204488 -0.159906 -0.105539 0 0 0.949254 0 0 
133 1 133 0.219789 0.299846 0 0 -0.305806 -0.168156 -0.152042 -0.107669 0 0 1.35984 0 0 
134 1 134 0.219746 0.339844 0 0 -0.342106 -0.163586 -0.162234 -0.103663 0 0 1.22076 0 0 
135 1 135 0.219706 0.379848 0 0 -0.364653 -0.117849 -0.154785 -0.0957906 0 0 0.85056 0 0 
136 1 136 0.21967 0.419859 0 0 -0.409659 -0.116342 -0.168758 -0.0851225 0 0 0.257038 0 0 
137 1 137 0.219637 0.459875 0 0 -0.435942 -0.074863 -0.163876 -0.0771741 0 0 -0.315166 0 0 
138 1 138 0.219606 0.499899 0 0 -0.480232 -0.0720378 -0.177198 -0.0665544 0 0 -1.02757 0 0 
139 1 139 0.219575 0.539927 0 0 -0.512395 -0.0416894 -0.177781 -0.0625098 0 0 -1.55219 0 0 
140 1 140 0.219543 0.579962 0 0 -0.555045 -0.032299 -0.188469 -0.0513455 0 0 -2.26742 0 0 
141 1 141 0.219509 0.620002 0 0 -0.592279 -0.0107826 -0.193521 -0.0495158 0 0 -2.53331 0 0 
142 1 142 0.219473 0.660048 0 0 -0.635029 -0.00561729 -0.205602 -0.0330495 0 0 -2.95564 0 0 
143 1 143 0.219438 0.700098 0 0 -0.660822 0.019087 -0.205951 -0.0261851 0 0 -2.63438 0 0 
144 1 144 0.219405 0.740152 0 0 -0.705414 -0.0021127 -0.227105 -0.00456514 0 0 -2.22681 0 0 
145 1 145 0.219381 0.780207 0 0 -0.71093 0.0336743 -0.217371 0.0180822 0 0 -1.51757 0 0 
146 1 146 0.219364 0.820266 0 0 -0.741883 0.00327601 -0.2371 0.0240635 0 0 -0.0377061 0 0 
147 1 147 0.219352 0.860326 0 0 -0.75315 0.0374073 -0.229747 0.045798 0 0 -0.0544559 0 0 
148 1 148 0.219343 0.90039 0 0 -0.777474 0.0289076 -0.240304 0.0304904 0 0 0.0464596 0 0 
149 1 149 0.219324 0.940454 0 0 -0.750545 0.0450341 -0.226458 -0.0071045 0 0 -0.183488 0 0 
150 1 150 0.219297 0.980515 0 0 -0.712108 0.0159781 -0.223441 0.0145754 0 0 -2.62513 0 0 
151 1 151 0.259971 0.0199768 0 0 -0.196742 -0.386599 -0.187184 -0.121995 0 0 -0.474997 0 0 
152 1 152 0.259928 0.0599351 0 0 -0.214574 -0.321891 -0.172121 -0.0669341 0 0 -1.36368 0 0 
153 1 153 0.259906 0.0999044 0 0 -0.264359 -0.28343 -0.17576 -0.040815 0 0 -2.14519 0 0 
154 1 154 0.259891 0.139884 0 0 -0.281739 -0.222376 -0.161728 -0.0448693 0 0 -1.8112 0 0 
155 1 155 0.259872 0.179871 0 0 -0.293796 -0.217871 -0.164155 -0.0562246 0 0 -0.230969 0 0 
156 1 156 0.259842 0.21986 0 0 -0.287395 -0.194862 -0.154707 -0.0784806 0 0 1.22573 0 0 
157 1 157 0.2598 0.259851 0 0 -0.300151 -0.201591 -0.160966 -0.094539 0 0 2.29966 0 0 
158 1 158 0.259753 0.299843 0 0 -0.306498 -0.16951 -0.152699 -0.100462 0 0 2.84298 0 0 
159 1 159 0.259704 0.339842 0 0 -0.340147 -0.165237 -0.162135 -0.100326 0 0 2.67441 0 0 
160 1 160 0.259656 0.379845 0 0 -0.364916 -0.121861 -0.156158 -0.0952578 0 0 2.17517 0 0 
161 1 161 0.259612 0.419856 0 0 -0.409727 -0.110285 -0.166834 -0.0869958 0 0 1.33973 0 0 
162 1 162 0.259572 0.459873 0 0 -0.443875 -0.0703661 -0.16498 -0.0819115 0 0 0.499348 0 0 
163 1 163 0.259533 0.499899 0 0 -0.490052 -0.0548896 -0.174844 -0.0736227 0 0 -0.500884 0 0 
164 1 164 0.259494 0.539931 0 0 -0.529969 -0.0264218 -0.178523 -0.0733592 0 0 -1.2366 0 0 
165 1 165 0.259454 0.57997 0 0 -0.573776 -0.0106262 -0.187524 -0.0642573 0 0 -2.15774 0 0 
166 1 166 0.259412 0.620015 0 0 -0.609744 0.0105754 -0.192269 -0.0662799 0 0 -2.48989 0 0 
167 1 167 0.259369 0.660065 0 0 -0.649304 0.011483 -0.204693 -0.0519105 0 0 -2.95698 0 0 
168 1 168 0.259329 0.700119 0 0 -0.666454 0.0330834 -0.203262 -0.0455821 0 0 -2.67786 0 0 
169 1 169 0.259293 0.740174 0 0 -0.696813 0.00730348 -0.221311 -0.0310138 0 0 -2.03696 0 0 
170 1 170 0.259265 0.78023 0 0 -0.69898 0.0363246 -0.212677 -0.00765283 0 0 -1.59487 0 0 
171 1 171 0.259245 0.820288 0 0 -0.730271 -0.00399749 -0.235705 -0.00849907 0 0 -0.297409 0 0 
172 1 172 0.25923 0.860346 0 0 -0.722098 0.0497578 -0.215791 0.00411399 0 0 -0.301465 0 0 
173 1 173 0.259218 0.900409 0 0 -0.759586 0.0232393 -0.236374 -0.00593602 0 0 -0.498328 0 0 
174 1 174 0.259199 0.940472 0 0 -0.744204 0.0458163 -0.224167 -0.024735 0 0 -0.980521 0 0 
175 1 175 0.259181 0.980533 0 0 -0.711844 0.0305615 -0.218667 -0.0107102 0 0 -2.00838 0 0 
176 1 176 0.299971 0.0199774 0 0 -0.170593 -0.367545 -0.172659 -0.12216 0 0 0.683133 0 0 
177 1 177 0.299921 0.0599348 0 0 -0.179183 -0.321067 -0.160486 -0.0803068 0 0 0.840876 0 0 
178 1 178 0.299887 0.0999023 0 0 -0.236632 -0.279229 -0.165501 -0.0540885 0 0 -0.255791 0 0 
179 1 179 0.299863 0.139882 0 0 -0.26948 -0.206498 -0.152689 -0.0436176 0 0 -0.393567 0 0 
180 1 180 0.29984 0.179871 0 0 -0.301178 -0.207501 -0.163194 -0.0473131 0 0 0.69067 0 0 
181 1 181 0.299809 0.219862 0 0 -0.301128 -0.184414 -0.155762 -0.068307 0 0 1.95099 0 0 
182 1 182 0.299766 0.259855 0 0 -0.317937 -0.200771 -0.166416 -0.0856824 0 0 3.07316 0 0 
183 1 183 0.299715 0.299849 0 0 -0.328785 -0.180144 -0.163274 -0.0964709 0 0 3.64979 0 0 
184 1 184 0.29966 0.339846 0 0 -0.365907 -0.180334 -0.175262 -0.100472 0 0 3.48495 0 0 
185 1 185 0.299605 0.379849 0 0 -0.400284 -0.146172 -0.175331 -0.0988055 0 0 2.92499 0 0 
186 1 186 0.299552 0.419859 0 0 -0.451147 -0.129022 -0.186164 -0.0930947 0 0 1.91933 0 0 
187 1 187 0.299503 0.459877 0 0 -0.497126 -0.0942215 -0.189757 -0.0904646 0 0 0.882874 0 0 
188 1 188 0.299455 0.499904 0 0 -0.545717 -0.0676873 -0.196846 -0.0835599 0 0 -0.366619 0 0 
189 1 189 0.299407 0.539938 0 0 -0.589933 -0.0405399 -0.202332 -0.085772 0 0 -1.28642 0 0 
190 1 190 0.299358 0.57998 0 0 -0.62958 -0.0174865 -0.207666 -0.0777267 0 0 -2.35752 0 0 
191 1 191 0.29931 0.620028 0 0 -0.660178 0.00273908 -0.211 -0.0810187 0 0 -2.71849 0 0 
192 1 192 0.299261 0.66008 0 0 -0.689897 0.00149207 -0.220956 -0.0686684 0 0 -3.04355 0 0 
193 1 193 0.299218 0.700134 0 0 -0.696303 0.021491 -0.216585 -0.0613271 0 0 -2.70112 0 0 
194 1 194 0.299179 0.740189 0 0 -0.719534 -0.0163548 -0.236226 -0.0499787 0 0 -1.88909 0 0 
195 1 195 0.299151 0.780243 0 0 -0.703354 0.0228487 -0.218417 -0.0304435 0 0 -1.38995 0 0 
196 1 196 0.299129 0.820298 0 0 -0.735745 -0.0277172 -0.245096 -0.0335953 0 0 -0.38058 0 0 
197 1 197 0.299111 0.860353 0 0 -0.730256 0.0308772 -0.224486 -0.0273958 0 0 -0.677695 0 0 
198 1 198 0.299094 0.900415 0 0 -0.760267 0.017098 -0.238568 -0.0389438 0 0 -0.872356 0 0 
199 1 199 0.299077 0.940476 0 0 -0.747053 0.0333754 -0.229084 -0.0386503 0 0 -1.22092 0 0 
200 1 200 0.299064 0.980537 0 0 -0.726282 0.0185611 -0.227168 -0.0222864 0 0 -0.907684 0 0 
201 1 201 0.339973 0.0199797 0 0 -0.135204 -0.323942 -0.147284 -0.111984 0 0 1.75117 0 0 
202 1 202 0.339919 0.0599389 0 0 -0.141755 -0.306406 -0.143755 -0.0941795 0 0 2.9602 0 0 
203 1 203 0.339872 0.0999059 0 0 -0.209178 -0.270995 -0.154037 -0.0756808 0 0 1.67746 0 0 
204 1 204 0.339836 0.139886 0 0 -0.25909 -0.198128 -0.146664 -0.0531443 0 0 1.01383 0 0 
205 1 205 0.339806 0.179875 0 0 -0.308961 -0.200589 -0.163473 -0.0478597 0 0 1.35686 0 0 
206 1 206 0.339772 0.219869 0 0 -0.320944 -0.176078 -0.15945 -0.0653849 0 0 2.09235 0 0 
207 1 207 0.339728 0.259864 0 0 -0.348035 -0.203364 -0.176919 -0.0832621 0 0 3.00476 0 0 
208 1 208 0.339673 0.299859 0 0 -0.364054 -0.193588 -0.178926 -0.0983963 0 0 3.51683 0 0 
209 1 209 0.339612 0.339857 0 0 -0.402704 -0.19828 -0.192855 -0.106417 0 0 3.3189 0 0 
210 1 210 0.339549 0.379859 0 0 -0.443211 -0.17475 -0.198311 -0.108247 0 0 2.66305 0 0 
211 1 211 0.339487 0.419868 0 0 -0.493933 -0.150754 -0.206903 -0.10448 0 0 1.47022 0 0 
212 1 212 0.339427 0.459886 0 0 -0.546829 -0.12105 -0.214358 -0.103259 0 0 0.248782 0 0 
213 1 213 0.339368 0.499913 0 0 -0.595566 -0.0847719 -0.218364 -0.0963557 0 0 -1.17834 0 0 
214 1 214 0.339311 0.539948 0 0 -0.643594 -0.0595379 -0.225693 -0.0989325 0 0 -2.1553 0 0 
215 1 215 0.339255 0.579991 0 0 -0.680938 -0.0340459 -0.229504 -0.0899668 0 0 -3.19517 0 0 
216 1 216 0.3392 0.62004 0 0 -0.704312 -0.0126393 -0.230136 -0.0918817 0 0 -3.44934 0 0 
217 1 217 0.339148 0.660092 0 0 -0.725192 -0.0212029 -0.239606 -0.0786396 0 0 -3.59196 0 0 
218 1 218 0.339103 0.700145 0 0 -0.711644 0.00587991 -0.226538 -0.0695438 0 0 -3.15611 0 0 
219 1 219 0.339065 0.740198 0 0 -0.724196 -0.0396144 -0.245208 -0.0598907 0 0 -2.30789 0 0 
220 1 220 0.339037 0.780248 0 0 -0.698217 0.00416875 -0.222772 -0.0426969 0 0 -2.01366 0 0 
221 1 221 0.339014 0.820301 0 0 -0.718773 -0.0351775 -0.242037 -0.0501174 0 0 -1.25464 0 0 
222 1 222 0.338992 0.860353 0 0 -0.714424 0.0181603 -0.223484 -0.0497829 0 0 -1.61353 0 0 
223 1 223 0.338972 0.900412 0 0 -0.745571 0.0131219 -0.23512 -0.0569893 0 0 -1.87296 0 0 
224 1 224 0.338955 0.940471 0 0 -0.735309 0.0284364 -0.226895 -0.0432175 0 0 -1.92735 0 0 
225 1 225 0.338947 0.98053 0 0 -0.717747 0.0111656 -0.226801 -0.0305658 0 0 -0.337917 0 0 
226 1 226 0.379976 0.0199827 0 0 -0.101111 -0.270348 -0.119128 -0.0965878 0 0 2.30689 0 0 
227 1 227 0.379922 0.0599454 0 0 -0.107869 -0.282861 -0.125314 -0.11219 0 0 4.15752 0 0 
228 1 228 0.379861 0.0999131 0 0 -0.176195 -0.257659 -0.139161 -0.106694 0 0 2.99696 0 0 
229 1 229 0.379811 0.139892 0 0 -0.242671 -0.194703 -0.140291 -0.0750386 0 0 1.99079 0 0 
230 1 230 0.379771 0.179882 0 0 -0.317405 -0.198832 -0.165621 -0.0616333 0 0 1.50214 0 0 
231 1 231 0.379731 0.219877 0 0 -0.351093 -0.175209 -0.168856 -0.0731671 0 0 1.61573 0 0 
232 1 232 0.379684 0.259875 0 0 -0.392055 -0.20965 -0.193086 -0.0885718 0 0 2.25992 0 0 
233 1 233 0.379626 0.299871 0 0 -0.415707 -0.209549 -0.200656 -0.106432 0 0 2.68169 0 0 
234 1 234 0.379559 0.339871 0 0 -0.457077 -0.219513 -0.217159 -0.117734 0 0 2.50738 0 0 
235 1 235 0.379488 0.379872 0 0 -0.504299 -0.208424 -0.228778 -0.122599 0 0 1.90108 0 0 
236 1 236 0.379415 0.419882 0 0 -0.556431 -0.181132 -0.236767 -0.120189 0 0 0.712813 0 0 
237 1 237 0.379344 0.459899 0 0 -0.61628 -0.158253 -0.248658 -0.119323 0 0 -0.510016 0 0 
238 1 238 0.379275 0.499925 0 0 -0.663714 -0.115821 -0.250267 -0.110647 0 0 -1.98585 0 0 
239 1 239 0.379208 0.539961 0 0 -0.707917 -0.0887751 -0.255786 -0.111353 0 0 -2.96427 0 0 
240 1 240 0.379145 0.580004 0 0 -0.737364 -0.0634616 -0.257116 -0.0989503 0 0 -3.96905 0 0 
241 1 241 0.379086 0.620052 0 0 -0.745375 -0.0356192 -0.250735 -0.097352 0 0 -4.102 0 0 
242 1 242 0.379032 0.660103 0 0 -0.757543 -0.0525308 -0.260091 -0.0820284 0 0 -4.00698 0 0 
243 1 243 0.378988 0.700153 0 0 -0.732541 -0.0224571 -0.242373 -0.0695089 0 0 -3.44551 0 0 
244 1 244 0.378952 0.740202 0 0 -0.737509 -0.067728 -0.258535 -0.0626512 0 0 -2.42045 0 0 
245 1 245 0.378925 0.780249 0 0 -0.711983 -0.0262454 -0.23698 -0.0487011 0 0 -2.22666 0 0 
246 1 246 0.378902 0.820299 0 0 -0.728261 -0.0508315 -0.250125 -0.0574076 0 0 -1.86916 0 0 
247 1 247 0.378877 0.860349 0 0 -0.721066 -0.00195564 -0.232089 -0.0640061 0 0 -2.25583 0 0 
248 1 248 0.378852 0.900405 0 0 -0.736561 0.00336135 -0.235362 -0.0665264 0 0 -2.44363 0 0 
249 1 249 0.378836 0.940462 0 0 -0.719523 0.0200245 -0.224524 -0.0374906 0 0 -2.36843 0 0 
250 1 250 0.378833 0.980518 0 0 -0.703784 8.15612e-05 -0.225876 -0.028277 0 0 -0.0789518 0 0 
251 1 251 0.41998 0.0199853 0 0 -0.086306 -0.229139 -0.10115 -0.0817307 0 0 2.30596 0 0 
252 1 252 0.419926 0.0599521 0 0 -0.103901 -0.265148 -0.118355 -0.130807 0 0 4.42247 0 0 
253 1 253 0.419853 0.0999215 0 0 -0.167928 -0.25169 -0.13459 -0.140429 0 0 3.75434 0 0 
254 1 254 0.419787 0.1399 0 0 -0.242874 -0.206148 -0.144032 -0.106051 0 0 2.61111 0 0 
255 1 255 0.419734 0.179889 0 0 -0.329407 -0.204213 -0.171206 -0.0866694 0 0 1.30025 0 0 
256 1 256 0.419686 0.219885 0 0 -0.376977 -0.176365 -0.177543 -0.08928 0 0 0.719249 0 0 
257 1 257 0.419634 0.259885 0 0 -0.425796 -0.208113 -0.203437 -0.0996318 0 0 0.972492 0 0 
258 1 258 0.419572 0.299884 0 0 -0.453823 -0.212876 -0.213978 -0.118396 0 0 1.27422 0 0 
259 1 259 0.419499 0.339885 0 0 -0.492352 -0.224181 -0.230003 -0.131625 0 0 1.20042 0 0 
260 1 260 0.41942 0.379888 0 0 -0.537548 -0.221443 -0.243659 -0.13886 0 0 0.730413 0 0 
261 1 261 0.419337 0.419898 0 0 -0.581404 -0.190226 -0.247724 -0.137025 0 0 -0.399508 0 0 
262 1 262 0.419255 0.459915 0 0 -0.635995 -0.169316 -0.25856 -0.135534 0 0 -1.58451 0 0 
263 1 263 0.419176 0.499941 0 0 -0.676452 -0.123964 -0.256985 -0.123721 0 0 -3.05472 0 0 
264 1 264 0.419101 0.539977 0 0 -0.713476 -0.0938973 -0.259223 -0.121147 0 0 -3.92171 0 0 
265 1 265 0.419031 0.580019 0 0 -0.739824 -0.0753981 -0.261748 -0.104072 0 0 -4.7403 0 0 
266 1 266 0.418969 0.620065 0 0 -0.73786 -0.0442433 -0.251092 -0.0971518 0 0 -4.67548 0 0 
267 1 267 0.418916 0.660113 0 0 -0.74285 -0.0677165 -0.260249 -0.0797407 0 0 -4.33916 0 0 
268 1 268 0.418874 0.700159 0 0 -0.708292 -0.0356093 -0.238804 -0.0635417 0 0 -3.84616 0 0 
269 1 269 0.418841 0.740205 0 0 -0.703406 -0.0718793 -0.2489 -0.0591685 0 0 -2.98554 0 0 
270 1 270 0.418815 0.780248 0 0 -0.677428 -0.0315959 -0.227588 -0.0507503 0 0 -3.06292 0 0 
271 1 271 0.418791 0.820295 0 0 -0.687977 -0.0379569 -0.233026 -0.0602166 0 0 -3.11938 0 0 
272 1 272 0.418763 0.860344 0 0 -0.687833 -0.00192579 -0.221392 -0.0706922 0 0 -3.41299 0 0 
273 1 273 0.418736 0.900398 0 0 -0.702619 0.0026862 -0.224663 -0.0695443 0 0 -3.2412 0 0 
274 1 274 0.418721 0.940452 0 0 -0.690629 0.0155042 -0.216687 -0.029389 0 0 -2.86596 0 0 
275 1 275 0.418722 0.980505 0 0 -0.684109 -0.0116364 -0.223317 -0.0236102 0 0 -0.188954 0 0 
276 1 276 0.459982 0.0199868 0 0 -0.0934352 -0.211682 -0.0978356 -0.075163 0 0 1.6091 0 0 
277 1 277 0.459927 0.059957 0 0 -0.121008 -0.251053 -0.119321 -0.14901 0 0 3.40088 0 0 
278 1 278 0.459845 0.0999291 0 0 -0.168692 -0.245034 -0.132698 -0.172142 0 0 3.54827 0 0 
279 1 279 0.459764 0.139906 0 0 -0.240936 -0.220897 -0.148146 -0.141938 0 0 2.69046 0 0 
280 1 280 0.459697 0.179894 0 0 -0.330443 -0.208024 -0.172763 -0.119509 0 0 0.944145 0 0 
281 1 281 0.459637 0.21989 0 0 -0.391854 -0.17729 -0.18262 -0.111481 0 0 -0.0907292 0 0 
282 1 282 0.459579 0.259892 0 0 -0.445089 -0.197323 -0.206169 -0.114184 0 0 -0.158508 0 0 
283 1 283 0.459513 0.299895 0 0 -0.472994 -0.200607 -0.216197 -0.130942 0 0 0.0415171 0 0 
284 1 284 0.459436 0.339899 0 0 -0.502346 -0.208143 -0.228059 -0.144283 0 0 0.0921719 0 0 
285 1 285 0.45935 0.379905 0 0 -0.539938 -0.209914 -0.240719 -0.153657 0 0 -0.154411 0 0 
286 1 286 0.459258 0.419916 0 0 -0.576939 -0.180243 -0.243077 -0.15261 0 0 -1.04585 0 0 
287 1 287 0.459166 0.459935 0 0 -0.62888 -0.163205 -0.254305 -0.150917 0 0 -1.95452 0 0 
288 1 288 0.459077 0.499961 0 0 -0.669775 -0.125024 -0.255178 -0.135824 0 0 -3.22044 0 0 
289 1 289 0.458994 0.539995 0 0 -0.701687 -0.094165 -0.255516 -0.129015 0 0 -3.89814 0 0 
290 1 290 0.458919 0.580036 0 0 -0.725548 -0.0856333 -0.260448 -0.106604 0 0 -4.57098 0 0 
291 1 291 0.458856 0.620079 0 0 -0.714972 -0.0530945 -0.246577 -0.093158 0 0 -4.47387 0 0 
292 1 292 0.458804 0.660123 0 0 -0.717085 -0.0812046 -0.2563 -0.0739672 0 0 -4.04364 0 0 
293 1 293 0.458766 0.700165 0 0 -0.686658 -0.0531992 -0.237504 -0.0553803 0 0 -3.68289 0 0 
294 1 294 0.458736 0.740207 0 0 -0.685718 -0.0799683 -0.245812 -0.0540798 0 0 -2.99599 0 0 
295 1 295 0.45871 0.780248 0 0 -0.675267 -0.0490305 -0.2325 -0.0519346 0 0 -3.28461 0 0 
296 1 296 0.458684 0.820293 0 0 -0.684795 -0.0395575 -0.232517 -0.0609449 0 0 -3.73686 0 0 
297 1 297 0.458654 0.860341 0 0 -0.680633 -0.0124645 -0.222466 -0.0718363 0 0 -4.03244 0 0 
298 1 298 0.458626 0.900391 0 0 -0.677597 -0.00687976 -0.219694 -0.0670112 0 0 -3.68499 0 0 
299 1 299 0.458612 0.940442 0 0 -0.653737 0.012369 -0.205835 -0.0190994 0 0 -3.45329 0 0 
300 1 300 0.458616 0.980492 0 0 -0.648952 -0.0158836 -0.213379 -0.0162192 0 0 -1.08335 0 0 
301 1 301 0.499981 0.0199868 0 0 -0.123615 -0.222473 -0.110985 -0.0821779 0 0 0.513017 0 0 
302 1 302 0.499922 0.0599594 0 0 -0.163312 -0.245615 -0.131157 -0.163264 0 0 1.67137 0 0 
303 1 303 0.499835 0.0999348 0 0 -0.189892 -0.242963 -0.13884 -0.194343 0 0 2.8389 0 0 
304 1 304 0.499743 0.139912 0 0 -0.245941 -0.238163 -0.155299 -0.175067 0 0 2.56157 0 0 
305 1 305 0.49966 0.179898 0 0 -0.317905 -0.206214 -0.168154 -0.153372 0 0 0.706984 0 0 
306 1 306 0.499589 0.219894 0 0 -0.377805 -0.169474 -0.175595 -0.134592 0 0 -0.63471 0 0 
307 1 307 0.499523 0.259897 0 0 -0.423373 -0.165557 -0.188979 -0.128349 0 0 -1.03457 0 0 
308 1 308 0.499452 0.299904 0 0 -0.449223 -0.162671 -0.19636 -0.141238 0 0 -0.909024 0 0 
309 1 309 0.499372 0.339913 0 0 -0.471539 -0.164889 -0.204246 -0.153645 0 0 -0.625921 0 0 
310 1 310 0.49928 0.379923 0 0 -0.501283 -0.168643 -0.215016 -0.165264 0 0 -0.520729 0 0 
311 1 311 0.499182 0.419937 0 0 -0.529044 -0.144317 -0.216121 -0.165155 0 0 -1.13067 0 0 
312 1 312 0.499081 0.459957 0 0 -0.566755 -0.126189 -0.222418 -0.16356 0 0 -1.84482 0 0 
313 1 313 0.498983 0.499984 0 0 -0.598759 -0.0972096 -0.22339 -0.145454 0 0 -3.07168 0 0 
314 1 314 0.498894 0.540017 0 0 -0.618931 -0.0645987 -0.21939 -0.134454 0 0 -3.72955 0 0 
315 1 315 0.498815 0.580055 0 0 -0.642314 -0.0683354 -0.22811 -0.10773 0 0 -4.34656 0 0 
316 1 316 0.498751 0.620094 0 0 -0.633155 -0.0409276 -0.216352 -0.0884162 0 0 -4.30706 0 0 
317 1 317 0.498701 0.660134 0 0 -0.639785 -0.0714604 -0.228301 -0.0689676 0 0 -3.91088 0 0 
318 1 318 0.498664 0.700171 0 0 -0.62115 -0.051008 -0.215733 -0.0494929 0 0 -3.9172 0 0 
319 1 319 0.498636 0.74021 0 0 -0.622092 -0.061836 -0.219518 -0.0511181 0 0 -3.72114 0 0 
320 1 320 0.498608 0.780249 0 0 -0.622847 -0.0381422 -0.212143 -0.055275 0 0 -4.36252 0 0 
321 1 321 0.498579 0.820292 0 0 -0.633736 -0.01866 -0.20938 -0.0619935 0 0 -5.13803 0 0 
322 1 322 0.498549 0.860339 0 0 -0.635785 -0.00434743 -0.205437 -0.0692818 0 0 -5.23332 0 0 
323 1 323 0.498521 0.900386 0 0 -0.637686 -0.0128091 -0.208768 -0.0621187 0 0 -4.31624 0 0 
324 1 324 0.498509 0.940433 0 0 -0.623492 0.00494654 -0.198499 -0.0116752 0 0 -3.89582 0 0 
325 1 325 0.498514 0.98048 0 0 -0.634142 -0.0272319 -0.212266 -0.0108013 0 0 -1.86906 0 0 
326 1 326 0.539975 0.019986 0 0 -0.162194 -0.250142 -0.132252 -0.105013 0 0 -0.696638 0 0 
327 1 327 0.53991 0.0599599 0 0 -0.206882 -0.240334 -0.143452 -0.171775 0 0 -0.353945 0 0 
328 1 328 0.539821 0.0999388 0 0 -0.208219 -0.235253 -0.14225 -0.202589 0 0 1.7314 0 0 
329 1 329 0.539722 0.139916 0 0 -0.238775 -0.243756 -0.154794 -0.199011 0 0 2.23393 0 0 
330 1 330 0.539627 0.179902 0 0 -0.285071 -0.192971 -0.153353 -0.182224 0 0 0.772725 0 0 
331 1 331 0.539543 0.219897 0 0 -0.343053 -0.156059 -0.16012 -0.155168 0 0 -0.497889 0 0 