ITEM: TIMESTEP
0
ITEM: NUMBER OF ATOMS
7127
ITEM: BOX BOUNDS sm sm sm
0 4
0 2
0 0
ITEM: ATOMS id type tag x y z vx 
0 1 0 0 0 0 0 
1 1 1 0 0.04 0 0 
2 1 2 0 0.08 0 0 
3 1 3 0 0.12 0 0 
4 1 4 0 0.16 0 0 
5 1 5 0 0.2 0 0 
6 1 6 0 0.24 0 0 
7 1 7 0 0.28 0 0 
8 1 8 0 0.32 0 0 
9 1 9 0 0.36 0 0 
10 1 10 0 0.4 0 0 
11 1 11 0 0.44 0 0 
12 1 12 0 0.48 0 0 
13 1 13 0 0.52 0 0 
14 1 14 0 0.56 0 0 
15 1 15 0 0.6 0 0 
16 1 16 0 0.64 0 0 
17 1 17 0 0.68 0 0 
18 1 18 0 0.72 0 0 
19 1 19 0 0.76 0 0 
20 1 20 0 0.8 0 0 
21 1 21 0 0.84 0 0 
22 1 22 0 0.88 0 0 
23 1 23 0 0.92 0 0 
24 1 24 0 0.96 0 0 
25 1 25 0 1 0 0 
26 1 26 0.04 0 0 0 
27 1 27 0.0399893 0.0399902 0 -0.448622 
28 1 28 0.0399846 0.0799884 0 -0.735556 
29 1 29 0.0399812 0.11999 0 -1.014 
30 1 30 0.0399828 0.159989 0 -1.0477 
31 1 31 0.0399859 0.199986 0 -0.98755 
32 1 32 0.0399906 0.239978 0 -0.894537 
33 1 33 0.0399911 0.27997 0 -0.796148 
34 1 34 0.0399943 0.319962 0 -0.706229 
35 1 35 0.039992 0.359956 0 -0.581914 
36 1 36 0.0399945 0.399957 0 -0.446204 
37 1 37 0.0399937 0.439961 0 -0.222293 
38 1 38 0.0399993 0.479969 0 -0.0849029 
39 1 39 0.0400024 0.519974 0 0.14776 
40 1 40 0.0400044 0.559982 0 0.214204 
41 1 41 0.040007 0.599987 0 0.392557 
42 1 42 0.0400056 0.639995 0 0.593396 
43 1 43 0.0400052 0.680004 0 0.493078 
44 1 44 0.0400079 0.720009 0 0.798496 
45 1 45 0.0399996 0.760017 0 0.61759 
46 1 46 0.0400122 0.800015 0 0.756357 
47 1 47 0.0400006 0.840022 0 1.17898 
48 1 48 0.0400005 0.88002 0 0.33283 
49 1 49 0.0400078 0.920017 0 0.452288 
50 1 50 0.0399899 0.960022 0 -0.0640953 
51 1 51 0.0399869 1.00002 0 -1.30662 
52 1 52 0.08 0 0 0 
53 1 53 0.0799806 0.0399845 0 -0.499763 
54 1 54 0.0799723 0.0799761 0 -1.42207 
55 1 55 0.0799647 0.11997 0 -2.29955 
56 1 56 0.0799701 0.159965 0 -2.41293 
57 1 57 0.0799773 0.199959 0 -2.24464 
58 1 58 0.0799871 0.239946 0 -1.96756 
59 1 59 0.0799887 0.279936 0 -1.64904 
60 1 60 0.0799934 0.319924 0 -1.39079 
61 1 61 0.0799857 0.359919 0 -0.971421 
62 1 62 0.0799864 0.399922 0 -0.580153 
63 1 63 0.0799823 0.439928 0 -0.13823 
64 1 64 0.0799926 0.479943 0 0.0684706 
65 1 65 0.0799993 0.519952 0 0.402119 
66 1 66 0.0800048 0.559964 0 0.446816 
67 1 67 0.0800064 0.599975 0 0.557521 
68 1 68 0.0800043 0.639988 0 0.810363 
69 1 69 0.0800029 0.680002 0 0.717616 
70 1 70 0.0800088 0.720012 0 1.20074 
71 1 71 0.0800026 0.760023 0 1.33315 
72 1 72 0.0800133 0.800026 0 1.69008 
73 1 73 0.0800044 0.840032 0 2.17758 
74 1 74 0.0800024 0.880035 0 1.20341 
75 1 75 0.0800074 0.92004 0 0.890977 
76 1 76 0.0799859 0.960048 0 -0.430131 
77 1 77 0.0799901 1.00004 0 -2.19484 
78 1 78 0.12 0 0 0 
79 1 79 0.119981 0.0399839 0 -0.584789 
80 1 80 0.119968 0.0799667 0 -1.99712 
81 1 81 0.119957 0.119952 0 -3.31803 
82 1 82 0.119963 0.15994 0 -3.61962 
83 1 83 0.119972 0.199928 0 -3.37411 
84 1 84 0.119985 0.239915 0 -2.90905 
85 1 85 0.119988 0.279905 0 -2.39908 
86 1 86 0.11999 0.319897 0 -1.96361 
87 1 87 0.11998 0.359893 0 -1.19049 
88 1 88 0.119975 0.3999 0 -0.467474 
89 1 89 0.119971 0.439907 0 0.172237 
90 1 90 0.11998 0.479923 0 0.449572 
91 1 91 0.119993 0.519935 0 0.632405 
92 1 92 0.120001 0.559951 0 0.54544 
93 1 93 0.120004 0.599965 0 0.487541 
94 1 94 0.120002 0.639981 0 0.640354 
95 1 95 0.120003 0.679994 0 0.619706 
96 1 96 0.120008 0.720009 0 1.03448 
97 1 97 0.120008 0.760017 0 1.54853 
98 1 98 0.120013 0.800027 0 2.32828 
99 1 99 0.120005 0.840035 0 2.72861 
100 1 100 0.120003 0.88004 0 1.95359 
101 1 101 0.119997 0.920054 0 1.1263 
102 1 102 0.119988 0.96006 0 -0.482081 
103 1 103 0.119997 1.00006 0 -1.80667 
104 1 104 0.16 0 0 0 
105 1 105 0.159986 0.0399819 0 -0.867054 
106 1 106 0.159971 0.0799604 0 -2.45179 
107 1 107 0.159959 0.119942 0 -3.9397 
108 1 108 0.159962 0.159925 0 -4.46438 
109 1 109 0.159973 0.199912 0 -4.23397 
110 1 110 0.159983 0.2399 0 -3.65192 
111 1 111 0.159987 0.279892 0 -2.9876 
112 1 112 0.159984 0.319887 0 -2.34262 
113 1 113 0.159973 0.359887 0 -1.3304 
114 1 114 0.159962 0.399892 0 -0.333853 
115 1 115 0.159959 0.439901 0 0.351763 
116 1 116 0.159968 0.479913 0 0.677848 
117 1 117 0.159981 0.519929 0 0.589836 
118 1 118 0.159992 0.559945 0 0.268958 
119 1 119 0.159993 0.59996 0 0.138306 
120 1 120 0.159994 0.639977 0 0.138526 
121 1 121 0.159995 0.679988 0 0.294955 
122 1 122 0.160001 0.720001 0 0.691378 
123 1 123 0.160006 0.760009 0 1.51447 
124 1 124 0.160009 0.800017 0 2.60593 
125 1 125 0.160002 0.840027 0 2.94641 
126 1 126 0.159998 0.880033 0 2.44947 
127 1 127 0.159986 0.920044 0 1.22663 
128 1 128 0.159989 0.96005 0 -0.141158 
129 1 129 0.160008 1.00005 0 -0.645777 
130 1 130 0.2 0 0 0 
131 1 131 0.199995 0.0399821 0 -0.983955 
132 1 132 0.19998 0.0799603 0 -2.56202 
133 1 133 0.199966 0.11994 0 -4.00984 
134 1 134 0.199966 0.159922 0 -4.71729 
135 1 135 0.199975 0.199909 0 -4.77207 
136 1 136 0.199983 0.239898 0 -4.33001 
137 1 137 0.199985 0.279894 0 -3.68686 
138 1 138 0.199978 0.31989 0 -2.90317 
139 1 139 0.199964 0.359894 0 -1.76403 
140 1 140 0.199953 0.399896 0 -0.527356 
141 1 141 0.199946 0.439904 0 0.261128 
142 1 142 0.199956 0.479913 0 0.655504 
143 1 143 0.199964 0.519925 0 0.492505 
144 1 144 0.19998 0.559943 0 -0.00972615 
145 1 145 0.199984 0.599956 0 -0.244499 
146 1 146 0.19999 0.639972 0 -0.428497 
147 1 147 0.199995 0.67998 0 -0.139526 
148 1 148 0.199999 0.719991 0 0.279795 
149 1 149 0.200009 0.759996 0 1.30776 
150 1 150 0.200004 0.800004 0 2.40382 
151 1 151 0.200001 0.840007 0 2.56194 
152 1 152 0.199992 0.880014 0 2.41805 
153 1 153 0.199976 0.920022 0 1.23077 
154 1 154 0.199987 0.960025 0 0.479845 
155 1 155 0.200006 1.00003 0 0.745078 
156 1 156 0.24 0 0 0 
157 1 157 0.240003 0.0399856 0 -0.966527 
158 1 158 0.23999 0.0799658 0 -2.31187 
159 1 159 0.239976 0.119945 0 -3.5507 
160 1 160 0.239973 0.159929 0 -4.534 
161 1 161 0.239978 0.199915 0 -5.09938 
162 1 162 0.239983 0.239909 0 -4.94018 
163 1 163 0.23998 0.279905 0 -4.41518 
164 1 164 0.239972 0.319907 0 -3.58759 
165 1 165 0.239955 0.359908 0 -2.38735 
166 1 166 0.239946 0.399911 0 -1.05246 
167 1 167 0.239937 0.439912 0 -0.105265 
168 1 168 0.239944 0.479918 0 0.351575 
169 1 169 0.239949 0.519927 0 0.16427 
170 1 170 0.239962 0.559941 0 -0.351501 
171 1 171 0.239967 0.599955 0 -0.654778 
172 1 172 0.239974 0.639966 0 -0.879535 
173 1 173 0.239984 0.679972 0 -0.404086 
174 1 174 0.239989 0.719978 0 0.0481391 
175 1 175 0.240004 0.759981 0 1.07754 
176 1 176 0.239998 0.799986 0 1.9703 
177 1 177 0.239997 0.839986 0 1.95857 
178 1 178 0.239985 0.87999 0 2.04171 
179 1 179 0.239967 0.919993 0 1.1161 
180 1 180 0.239979 0.959998 0 1.10952 
181 1 181 0.239987 1.00001 0 1.94317 
182 1 182 0.28 0 0 0 
183 1 183 0.280011 0.0399878 0 -0.915404 
184 1 184 0.280001 0.0799728 0 -1.86414 
185 1 185 0.279987 0.119954 0 -2.83358 
186 1 186 0.279981 0.159941 0 -4.11709 
187 1 187 0.27998 0.199928 0 -5.24035 
188 1 188 0.279981 0.239926 0 -5.51133 
189 1 189 0.279976 0.279924 0 -5.20492 
190 1 190 0.279966 0.319927 0 -4.39873 
191 1 191 0.27995 0.359928 0 -3.18717 
192 1 192 0.279941 0.399925 0 -1.81555 
193 1 193 0.279932 0.439923 0 -0.672894 
194 1 194 0.279933 0.47992 0 -0.0474459 
195 1 195 0.279933 0.519928 0 -0.177575 
196 1 196 0.279944 0.559937 0 -0.635435 
197 1 197 0.279954 0.59995 0 -0.908692 
198 1 198 0.279968 0.639959 0 -1.03163 
199 1 199 0.279982 0.679964 0 -0.416159 
200 1 200 0.279988 0.719967 0 0.0636171 
201 1 201 0.280002 0.759966 0 0.899011 
202 1 202 0.279996 0.799972 0 1.28871 
203 1 203 0.279996 0.839969 0 1.13341 
204 1 204 0.279976 0.879974 0 1.44823 
205 1 205 0.279957 0.919975 0 0.959562 
206 1 206 0.27996 0.959981 0 1.50598 
207 1 207 0.279955 0.999995 0 2.50584 
208 1 208 0.32 0 0 0 
209 1 209 0.320012 0.0399903 0 -0.784352 
210 1 210 0.320007 0.0799804 0 -1.4025 
211 1 211 0.319997 0.119966 0 -2.15809 
212 1 212 0.319988 0.159954 0 -3.62996 
213 1 213 0.319982 0.199946 0 -5.2505 
214 1 214 0.319978 0.239944 0 -6.05013 
215 1 215 0.31997 0.279945 0 -6.01646 
216 1 216 0.31996 0.319945 0 -5.27106 
217 1 217 0.319948 0.359946 0 -4.07334 
218 1 218 0.319941 0.399937 0 -2.61037 
219 1 219 0.319931 0.439932 0 -1.27061 
220 1 220 0.319926 0.479925 0 -0.548774 
221 1 221 0.319919 0.519926 0 -0.50189 
222 1 222 0.319923 0.559933 0 -0.717609 
223 1 223 0.319932 0.599942 0 -0.968486 
224 1 224 0.319949 0.63995 0 -0.946336 
225 1 225 0.319965 0.679955 0 -0.203417 
226 1 226 0.319976 0.719961 0 0.246485 
227 1 227 0.319991 0.759961 0 0.805096 
228 1 228 0.319986 0.799966 0 0.603164 
229 1 229 0.319987 0.839967 0 0.233471 
230 1 230 0.319965 0.879973 0 0.659739 
231 1 231 0.319945 0.919976 0 0.708888 
232 1 232 0.319934 0.959986 0 1.57478 
233 1 233 0.319913 1 0 2.38169 
234 1 234 0.36 0 0 0 
235 1 235 0.360013 0.0399926 0 -0.716403 
236 1 236 0.360012 0.0799876 0 -1.154 
237 1 237 0.360004 0.119977 0 -1.7452 
238 1 238 0.359994 0.159968 0 -3.27902 
239 1 239 0.359983 0.199961 0 -5.24254 
240 1 240 0.359975 0.239959 0 -6.49445 
241 1 241 0.359966 0.279959 0 -6.68207 
242 1 242 0.359957 0.319957 0 -6.01604 
243 1 243 0.359948 0.359952 0 -4.84312 
244 1 244 0.359943 0.399943 0 -3.29683 
245 1 245 0.359932 0.439932 0 -1.86066 
246 1 246 0.35992 0.479924 0 -1.05145 
247 1 247 0.359906 0.519921 0 -0.863649 
248 1 248 0.359907 0.559923 0 -0.803716 
249 1 249 0.359915 0.599932 0 -0.897417 
250 1 250 0.359938 0.63994 0 -0.75769 
251 1 251 0.359956 0.679949 0 0.126534 
252 1 252 0.359967 0.719957 0 0.577271 
253 1 253 0.359981 0.759966 0 0.789379 
254 1 254 0.359976 0.799975 0 0.104983 
255 1 255 0.359975 0.839981 0 -0.471276 
256 1 256 0.359949 0.879992 0 -0.157533 
257 1 257 0.359928 0.919996 0 0.262658 
258 1 258 0.359903 0.960009 0 1.21841 
259 1 259 0.35987 1.00002 0 1.68241 
260 1 260 0.4 0 0 0 
261 1 261 0.400007 0.0399946 0 -0.752585 
262 1 262 0.40001 0.0799931 0 -1.05023 
263 1 263 0.400007 0.119985 0 -1.53239 
264 1 264 0.399998 0.159977 0 -3.11073 
265 1 265 0.399983 0.199969 0 -5.21442 
266 1 266 0.399972 0.239967 0 -6.76487 
267 1 267 0.399964 0.279963 0 -7.18054 
268 1 268 0.399956 0.319959 0 -6.58046 
269 1 269 0.399951 0.359951 0 -5.45647 
270 1 270 0.399947 0.399939 0 -3.91861 
271 1 271 0.399934 0.439928 0 -2.50945 
272 1 272 0.399916 0.479916 0 -1.58989 
273 1 273 0.399893 0.519915 0 -1.196 
274 1 274 0.399886 0.559915 0 -0.998114 
275 1 275 0.39989 0.599924 0 -0.771866 
276 1 276 0.399906 0.639935 0 -0.340185 
277 1 277 0.399926 0.679949 0 0.476841 
278 1 278 0.39994 0.719963 0 0.856776 
279 1 279 0.399953 0.759977 0 0.730953 
280 1 280 0.399952 0.799995 0 -0.402316 
281 1 281 0.399951 0.840009 0 -1.13727 
282 1 282 0.399928 0.880025 0 -0.905917 
283 1 283 0.399908 0.920033 0 -0.184145 
284 1 284 0.399871 0.960047 0 0.658084 
285 1 285 0.39983 1.00006 0 0.704641 
286 1 286 0.44 0 0 0 
287 1 287 0.440003 0.0399964 0 -0.929339 
288 1 288 0.440009 0.0799953 0 -1.20909 
289 1 289 0.440011 0.119989 0 -1.65206 
290 1 290 0.440002 0.15998 0 -3.10381 
291 1 291 0.439984 0.199971 0 -5.01337 
292 1 292 0.439971 0.239965 0 -6.69802 
293 1 293 0.439962 0.279958 0 -7.3674 
294 1 294 0.439957 0.31995 0 -6.862 
295 1 295 0.439954 0.359942 0 -5.85265 
296 1 296 0.43995 0.39993 0 -4.44937 
297 1 297 0.439934 0.43992 0 -3.11581 
298 1 298 0.439911 0.479912 0 -2.23349 
299 1 299 0.439883 0.519908 0 -1.66067 
300 1 300 0.439868 0.559911 0 -1.20421 
301 1 301 0.43987 0.599919 0 -0.804899 
302 1 302 0.439887 0.639934 0 -0.102441 
303 1 303 0.439902 0.679954 0 0.722464 
304 1 304 0.439918 0.719976 0 0.988184 
305 1 305 0.439927 0.759998 0 0.684231 
306 1 306 0.439925 0.800021 0 -0.666802 
307 1 307 0.439923 0.840044 0 -1.52439 
308 1 308 0.439901 0.880064 0 -1.45424 
309 1 309 0.439884 0.920078 0 -0.652462 
310 1 310 0.439841 0.960095 0 -0.0427496 
311 1 311 0.439796 1.00011 0 -0.351984 
312 1 312 0.48 0 0 0 
313 1 313 0.479997 0.0399975 0 -1.17741 
314 1 314 0.480005 0.0799942 0 -1.55141 
315 1 315 0.480012 0.119988 0 -1.98282 
316 1 316 0.480004 0.159978 0 -3.16998 
317 1 317 0.479985 0.199969 0 -4.72075 
318 1 318 0.479971 0.239959 0 -6.39878 
319 1 319 0.479962 0.27995 0 -7.22369 
320 1 320 0.479957 0.319941 0 -6.89243 
321 1 321 0.479957 0.359931 0 -6.08028 
322 1 322 0.479949 0.399923 0 -4.91156 
323 1 323 0.479933 0.439916 0 -3.78744 
324 1 324 0.479904 0.479913 0 -2.90601 
325 1 325 0.479872 0.519911 0 -2.15315 
326 1 326 0.47985 0.559914 0 -1.33896 
327 1 327 0.479839 0.599925 0 -0.722373 
328 1 328 0.479847 0.639942 0 -0.00657826 
329 1 329 0.479859 0.679967 0 0.764139 
330 1 330 0.479875 0.719994 0 0.899845 
331 1 331 0.479886 0.760023 0 0.424677 
332 1 332 0.479886 0.800051 0 -0.841167 
333 1 333 0.479885 0.840079 0 -1.58193 
334 1 334 0.479869 0.880104 0 -1.67039 
335 1 335 0.479855 0.920123 0 -1.05746 
336 1 336 0.479813 0.960142 0 -0.799593 
337 1 337 0.47977 1.00015 0 -1.35634 
338 1 338 0.52 0 0 0 
339 1 339 0.519996 0.039997 0 -1.35509 
340 1 340 0.520005 0.079991 0 -1.90502 
341 1 341 0.520014 0.119984 0 -2.43879 
342 1 342 0.520006 0.159974 0 -3.36299 
343 1 343 0.519987 0.199963 0 -4.43647 
344 1 344 0.519971 0.239953 0 -5.90117 
345 1 345 0.519962 0.279942 0 -6.86045 
346 1 346 0.519958 0.319934 0 -6.82041 
347 1 347 0.519956 0.359924 0 -6.25174 
348 1 348 0.519947 0.39992 0 -5.35318 
349 1 349 0.519928 0.439918 0 -4.48483 
350 1 350 0.519898 0.479918 0 -3.54693 
351 1 351 0.519865 0.51992 0 -2.59062 
352 1 352 0.519839 0.559925 0 -1.56432 
353 1 353 0.519825 0.599936 0 -0.654484 
354 1 354 0.519826 0.639956 0 0.156389 
355 1 355 0.519834 0.679983 0 0.668853 
356 1 356 0.519847 0.720014 0 0.544041 
357 1 357 0.519852 0.760047 0 -0.0465955 
358 1 358 0.519851 0.800078 0 -1.09956 
359 1 359 0.519848 0.840112 0 -1.62069 
360 1 360 0.519835 0.880141 0 -1.81018 
361 1 361 0.519823 0.920165 0 -1.48239 
362 1 362 0.519785 0.960185 0 -1.53591 
363 1 363 0.519747 1.0002 0 -2.18435 
364 1 364 0.56 0 0 0 
365 1 365 0.559995 0.039996 0 -1.45406 
366 1 366 0.560005 0.0799886 0 -2.24847 
367 1 367 0.560015 0.119982 0 -2.93538 
368 1 368 0.560008 0.159973 0 -3.59894 
369 1 369 0.559989 0.199963 0 -4.20262 
370 1 370 0.559972 0.239951 0 -5.405 
371 1 371 0.559962 0.279941 0 -6.4929 
372 1 372 0.559957 0.319933 0 -6.74207 
373 1 373 0.559955 0.359927 0 -6.44073 
374 1 374 0.559942 0.399927 0 -5.88778 
375 1 375 0.559922 0.439927 0 -5.21462 
376 1 376 0.559892 0.479933 0 -4.16194 
377 1 377 0.559859 0.519936 0 -2.98153 
378 1 378 0.559828 0.559943 0 -1.72016 
379 1 379 0.559801 0.599955 0 -0.671159 
380 1 380 0.559792 0.639975 0 0.036403 
381 1 381 0.559793 0.680003 0 0.212664 
382 1 382 0.559803 0.720034 0 -0.187115 
383 1 383 0.559809 0.760071 0 -0.724604 
384 1 384 0.559808 0.800104 0 -1.33834 
385 1 385 0.559806 0.840139 0 -1.58367 
386 1 386 0.559797 0.880171 0 -1.90096 
387 1 387 0.55979 0.920198 0 -1.96727 
388 1 388 0.559759 0.96022 0 -2.27475 
389 1 389 0.559728 1.00023 0 -2.8708 
390 1 390 0.6 0 0 0 
391 1 391 0.599999 0.039994 0 -1.28715 
392 1 392 0.600009 0.0799861 0 -2.42493 
393 1 393 0.600016 0.11998 0 -3.44277 
394 1 394 0.600008 0.159973 0 -3.96508 
395 1 395 0.599992 0.199967 0 -4.19707 
396 1 396 0.599976 0.239957 0 -5.12086 
397 1 397 0.599965 0.279947 0 -6.22438 
398 1 398 0.599958 0.319941 0 -6.74314 
399 1 399 0.599953 0.359937 0 -6.75957 
400 1 400 0.599936 0.399941 0 -6.48153 
401 1 401 0.599917 0.439944 0 -5.96359 
402 1 402 0.599888 0.479952 0 -4.804 
403 1 403 0.599857 0.519956 0 -3.39689 
404 1 404 0.599825 0.559964 0 -1.93965 
405 1 405 0.599796 0.599976 0 -0.808569 
406 1 406 0.599781 0.639994 0 -0.350248 
407 1 407 0.599776 0.680022 0 -0.548179 
408 1 408 0.599779 0.720054 0 -1.20492 
409 1 409 0.59978 0.76009 0 -1.75122 
410 1 410 0.599776 0.800126 0 -1.89623 
411 1 411 0.59977 0.840162 0 -1.80101 
412 1 412 0.599763 0.880196 0 -2.15766 
413 1 413 0.599756 0.920224 0 -2.47484 
414 1 414 0.599732 0.960247 0 -2.79556 
415 1 415 0.599707 1.00026 0 -3.17399 
416 1 416 0.64 0 0 0 
417 1 417 0.640001 0.0399932 0 -0.997393 
418 1 418 0.64001 0.0799867 0 -2.42756 
419 1 419 0.640016 0.119983 0 -3.75404 
420 1 420 0.640011 0.15998 0 -4.25185 
421 1 421 0.639999 0.199976 0 -4.33781 
422 1 422 0.639981 0.239968 0 -5.04737 
423 1 423 0.639969 0.279961 0 -6.0878 
424 1 424 0.63996 0.319958 0 -6.83704 
425 1 425 0.639951 0.359957 0 -7.18715 
426 1 426 0.639932 0.399963 0 -7.09003 
427 1 427 0.639911 0.439968 0 -6.64314 
428 1 428 0.639884 0.479978 0 -5.41977 
429 1 429 0.639856 0.519982 0 -3.79713 
430 1 430 0.63982 0.559991 0 -2.2661 
431 1 431 0.639781 0.600002 0 -1.20733 
432 1 432 0.639754 0.640017 0 -1.01893 
433 1 433 0.639741 0.680043 0 -1.59223 
434 1 434 0.63974 0.720073 0 -2.48134 
435 1 435 0.639741 0.760108 0 -2.96382 
436 1 436 0.639738 0.800143 0 -2.5858 
437 1 437 0.639732 0.840179 0 -2.12707 
438 1 438 0.639728 0.880213 0 -2.44596 
439 1 439 0.639723 0.920242 0 -2.92009 
440 1 440 0.639705 0.960266 0 -3.16606 
441 1 441 0.639686 1.00028 0 -3.27005 
442 1 442 0.68 0 0 0 
443 1 443 0.680007 0.0399938 0 -0.69291 
444 1 444 0.680015 0.079988 0 -2.27368 
445 1 445 0.680017 0.119987 0 -3.817 
446 1 446 0.680011 0.159987 0 -4.43543 
447 1 447 0.680006 0.199985 0 -4.54093 
448 1 448 0.679991 0.239981 0 -5.03591 
449 1 449 0.679979 0.279976 0 -5.97544 
450 1 450 0.679966 0.319976 0 -6.88005 
451 1 451 0.67995 0.359977 0 -7.49318 
452 1 452 0.679929 0.399986 0 -7.56788 
453 1 453 0.679908 0.439992 0 -7.16989 
454 1 454 0.679882 0.480003 0 -5.91713 
455 1 455 0.679855 0.520008 0 -4.22912 
456 1 456 0.679821 0.560018 0 -2.79284 
457 1 457 0.679784 0.600027 0 -1.84985 
458 1 458 0.679753 0.64004 0 -1.92635 
459 1 459 0.679735 0.680062 0 -2.86475 
460 1 460 0.679724 0.720089 0 -3.85368 
461 1 461 0.679718 0.760123 0 -4.14182 
462 1 462 0.679712 0.800159 0 -3.28923 
463 1 463 0.679702 0.840193 0 -2.53916 
464 1 464 0.679699 0.880225 0 -2.71793 
465 1 465 0.679692 0.920255 0 -3.17136 
466 1 466 0.67968 0.960278 0 -3.21939 
467 1 467 0.679666 1.00029 0 -3.00543 
468 1 468 0.72 0 0 0 
469 1 469 0.720009 0.0399955 0 -0.416979 
470 1 470 0.720016 0.0799908 0 -1.97874 
471 1 471 0.720018 0.119991 0 -3.6055 
472 1 472 0.720016 0.159993 0 -4.43017 
473 1 473 0.720014 0.199993 0 -4.69031 
474 1 474 0.72 0.239992 0 -5.02137 
475 1 475 0.719987 0.279989 0 -5.80329 
476 1 476 0.71997 0.319991 0 -6.73176 
477 1 477 0.71995 0.359996 0 -7.53965 
478 1 478 0.719927 0.400006 0 -7.75907 
479 1 479 0.719903 0.440015 0 -7.38894 
480 1 480 0.719879 0.480026 0 -6.15315 
481 1 481 0.719853 0.520034 0 -4.50391 
482 1 482 0.719816 0.560045 0 -3.29249 
483 1 483 0.719774 0.600053 0 -2.5396 
484 1 484 0.719733 0.640066 0 -2.90011 
485 1 485 0.719709 0.680084 0 -4.11056 
486 1 486 0.719693 0.720108 0 -5.01199 
487 1 487 0.719685 0.76014 0 -5.13052 
488 1 488 0.719681 0.800173 0 -3.98029 
489 1 489 0.719672 0.840205 0 -2.92829 
490 1 490 0.719671 0.880236 0 -2.8574 
491 1 491 0.719664 0.920265 0 -3.23776 
492 1 492 0.719656 0.960286 0 -3.11323 
493 1 493 0.719647 1.0003 0 -2.62786 
494 1 494 0.76 0 0 0 
495 1 495 0.760015 0.0399967 0 -0.307871 
496 1 496 0.76002 0.0799922 0 -1.7191 
497 1 497 0.760019 0.119992 0 -3.22184 
498 1 498 0.760018 0.159993 0 -4.16237 
499 1 499 0.760022 0.199994 0 -4.63724 
500 1 500 0.760011 0.239994 0 -4.89156 
501 1 501 0.759996 0.279994 0 -5.47831 
502 1 502 0.759974 0.319998 0 -6.35419 
503 1 503 0.759949 0.360005 0 -7.28752 
504 1 504 0.759924 0.400017 0 -7.54339 
505 1 505 0.7599 0.440028 0 -7.15197 
506 1 506 0.759878 0.48004 0 -6.09112 
507 1 507 0.759852 0.520051 0 -4.6504 
508 1 508 0.759818 0.560063 0 -3.70814 
509 1 509 0.759783 0.600073 0 -3.23632 
510 1 510 0.759743 0.640086 0 -3.84776 
511 1 511 0.759712 0.680102 0 -5.09025 
512 1 512 0.759685 0.720126 0 -5.74794 
513 1 513 0.759669 0.760156 0 -5.72151 
514 1 514 0.759661 0.800187 0 -4.3861 
515 1 515 0.75965 0.840217 0 -3.10037 
516 1 516 0.759647 0.880244 0 -2.77291 
517 1 517 0.759638 0.920272 0 -3.01964 
518 1 518 0.759635 0.960289 0 -2.78133 
519 1 519 0.759632 1.0003 0 -2.13247 
520 1 520 0.8 0 0 0 
521 1 521 0.800017 0.0399983 0 -0.258171 
522 1 522 0.800022 0.0799944 0 -1.44292 
523 1 523 0.800022 0.119993 0 -2.71966 
524 1 524 0.800022 0.159992 0 -3.75587 
525 1 525 0.800028 0.199992 0 -4.48697 
526 1 526 0.800016 0.239992 0 -4.66564 
527 1 527 0.800001 0.279994 0 -5.01683 
528 1 528 0.799975 0.32 0 -5.79123 
529 1 529 0.799946 0.360009 0 -6.74396 
530 1 530 0.79992 0.400022 0 -6.983 
531 1 531 0.799896 0.440034 0 -6.6 
532 1 532 0.799873 0.480049 0 -5.82292 
533 1 533 0.799847 0.520062 0 -4.73389 
534 1 534 0.799811 0.560077 0 -4.12635 
535 1 535 0.799772 0.60009 0 -3.94808 
536 1 536 0.799724 0.640104 0 -4.62797 
537 1 537 0.799688 0.680119 0 -5.69983 
538 1 538 0.799657 0.720143 0 -6.11527 
539 1 539 0.799638 0.760169 0 -5.94287 
540 1 540 0.799632 0.800198 0 -4.51138 
541 1 541 0.799623 0.840227 0 -3.15767 
542 1 542 0.799623 0.88025 0 -2.55404 
543 1 543 0.799613 0.920274 0 -2.54691 
544 1 544 0.799616 0.960289 0 -2.27744 
545 1 545 0.799618 1.0003 0 -1.59832 
546 1 546 0.84 0 0 0 
547 1 547 0.840021 0.0399984 0 -0.352948 
548 1 548 0.840025 0.079995 0 -1.25456 
549 1 549 0.840024 0.119991 0 -2.17433 
550 1 550 0.840024 0.159987 0 -3.23186 
551 1 551 0.84003 0.199986 0 -4.24604 
552 1 552 0.840019 0.239987 0 -4.48703 
553 1 553 0.840002 0.27999 0 -4.70009 
554 1 554 0.839973 0.319998 0 -5.26931 
555 1 555 0.839943 0.360008 0 -6.07312 
556 1 556 0.839918 0.400021 0 -6.32727 
557 1 557 0.839894 0.440034 0 -5.99646 
558 1 558 0.83987 0.480049 0 -5.43458 
559 1 559 0.839844 0.520065 0 -4.67838 
560 1 560 0.839811 0.560082 0 -4.40764 
561 1 561 0.839778 0.600097 0 -4.50594 
562 1 562 0.839733 0.640114 0 -5.10743 
563 1 563 0.839691 0.68013 0 -5.85095 
564 1 564 0.839649 0.720154 0 -5.96094 
565 1 565 0.839621 0.760178 0 -5.60284 
566 1 566 0.839611 0.800205 0 -4.26644 
567 1 567 0.8396 0.840232 0 -3.08233 
568 1 568 0.839598 0.880251 0 -2.19586 
569 1 569 0.839589 0.920272 0 -1.86826 
570 1 570 0.839599 0.960283 0 -1.64643 
571 1 571 0.839605 1.00029 0 -1.02808 
572 1 572 0.88 0 0 0 
573 1 573 0.88002 0.0399982 0 -0.500738 
574 1 574 0.880025 0.0799956 0 -1.13552 
575 1 575 0.880026 0.11999 0 -1.7681 
576 1 576 0.880027 0.159985 0 -2.80153 
577 1 577 0.88003 0.199983 0 -3.94202 
578 1 578 0.880018 0.239985 0 -4.25299 
579 1 579 0.879999 0.27999 0 -4.44934 
580 1 580 0.879969 0.319999 0 -4.87291 
581 1 581 0.879939 0.360011 0 -5.43807 
582 1 582 0.879913 0.400023 0 -5.58556 
583 1 583 0.879889 0.440038 0 -5.25527 
584 1 584 0.879863 0.480052 0 -4.97184 
585 1 585 0.879836 0.520069 0 -4.6819 
586 1 586 0.879798 0.560087 0 -4.68668 
587 1 587 0.879759 0.600103 0 -4.90155 
588 1 588 0.879707 0.640122 0 -5.3044 
589 1 589 0.879659 0.680138 0 -5.62148 
590 1 590 0.879613 0.720161 0 -5.39355 
591 1 591 0.879584 0.760183 0 -4.91824 
592 1 592 0.879574 0.800208 0 -3.8358 
593 1 593 0.879568 0.840231 0 -2.8876 
594 1 594 0.879571 0.880247 0 -1.7151 
595 1 595 0.879566 0.920265 0 -1.06846 
596 1 596 0.879583 0.960273 0 -0.913144 
597 1 597 0.879594 1.00028 0 -0.389042 
598 1 598 0.92 0 0 0 
599 1 599 0.920019 0.0399962 0 -0.6709 
600 1 600 0.920026 0.0799935 0 -1.05932 
601 1 601 0.920028 0.119988 0 -1.41134 
602 1 602 0.920027 0.159983 0 -2.36598 
603 1 603 0.920026 0.19998 0 -3.6234 
604 1 604 0.920013 0.239985 0 -4.09213 
605 1 605 0.919993 0.279993 0 -4.2886 
606 1 606 0.919963 0.320003 0 -4.51661 
607 1 607 0.919935 0.360015 0 -4.77585 
608 1 608 0.919909 0.400027 0 -4.80472 
609 1 609 0.919885 0.440041 0 -4.49775 
610 1 610 0.919857 0.480055 0 -4.44088 
611 1 611 0.919828 0.520071 0 -4.55015 
612 1 612 0.919791 0.560089 0 -4.76392 
613 1 613 0.919756 0.600104 0 -5.07216 
614 1 614 0.919707 0.640124 0 -5.27646 
615 1 615 0.919653 0.680139 0 -5.16318 
616 1 616 0.919599 0.720161 0 -4.65439 
617 1 617 0.919562 0.760182 0 -4.1788 
618 1 618 0.919546 0.800203 0 -3.42904 
619 1 619 0.919538 0.840225 0 -2.75349 
620 1 620 0.919544 0.880239 0 -1.41177 
621 1 621 0.919543 0.920254 0 -0.46669 
622 1 622 0.919567 0.96026 0 -0.333252 
623 1 623 0.919583 1.00027 0 0.0763085 
624 1 624 0.96 0 0 0 
625 1 625 0.960012 0.0399944 0 -0.857743 
626 1 626 0.960019 0.0799926 0 -1.11687 
627 1 627 0.960026 0.119987 0 -1.25928 
628 1 628 0.960025 0.159982 0 -1.96999 
629 1 629 0.960018 0.199982 0 -3.12672 
630 1 630 0.960002 0.239989 0 -3.71766 
631 1 631 0.959982 0.279999 0 -3.9489 
632 1 632 0.959954 0.320011 0 -4.00188 
633 1 633 0.959927 0.360025 0 -3.92557 
634 1 634 0.959901 0.400036 0 -3.80391 
635 1 635 0.959877 0.44005 0 -3.56929 
636 1 636 0.959845 0.480063 0 -3.75246 
637 1 637 0.959813 0.520079 0 -4.23055 
638 1 638 0.959771 0.560095 0 -4.65668 
639 1 639 0.959727 0.60011 0 -5.05765 
640 1 640 0.95967 0.640128 0 -5.05571 
641 1 641 0.959612 0.680143 0 -4.58467 
642 1 642 0.959558 0.720161 0 -3.92486 
643 1 643 0.959521 0.760178 0 -3.54122 
644 1 644 0.959506 0.800196 0 -3.1128 
645 1 645 0.959504 0.840214 0 -2.72798 
646 1 646 0.959516 0.880229 0 -1.37359 
647 1 647 0.95952 0.920241 0 -0.112056 
648 1 648 0.95955 0.960248 0 0.118286 
649 1 649 0.95957 1.00026 0 0.419847 
650 1 650 1 0 0 0 
651 1 651 1.00001 0.0399921 0 -1.03861 
652 1 652 1.00002 0.0799894 0 -1.25221 
653 1 653 1.00002 0.119985 0 -1.28614 
654 1 654 1.00002 0.159983 0 -1.66232 
655 1 655 1.00001 0.199985 0 -2.44422 
656 1 656 0.999987 0.239993 0 -3.01471 
657 1 657 0.999966 0.280005 0 -3.28432 
658 1 658 0.999939 0.320018 0 -3.16343 
659 1 659 0.999916 0.360032 0 -2.73356 
660 1 660 0.999889 0.400044 0 -2.45261 
661 1 661 0.999865 0.440058 0 -2.35689 
662 1 662 0.999833 0.480071 0 -2.83209 
663 1 663 0.9998 0.520085 0 -3.69948 
664 1 664 0.999759 0.560099 0 -4.3874 
665 1 665 0.999718 0.600113 0 -4.88644 
666 1 666 0.999665 0.640127 0 -4.73835 
667 1 667 0.999605 0.680142 0 -4.09344 
668 1 668 0.999547 0.720156 0 -3.41431 
669 1 669 0.999503 0.760171 0 -3.18889 
670 1 670 0.999483 0.800186 0 -3.08537 
671 1 671 0.999478 0.840202 0 -2.94469 
672 1 672 0.999491 0.880216 0 -1.63395 
673 1 673 0.999499 0.920227 0 -0.0786117 
674 1 674 0.999531 0.960236 0 0.307335 
675 1 675 0.999552 1.00025 0 0.515868 
676 1 676 1.04 0 0 0 
677 1 677 1.04 0.0399911 0 -1.19943 
678 1 678 1.04 0.0799875 0 -1.37786 
679 1 679 1.04001 0.119984 0 -1.28938 
680 1 680 1.04001 0.159985 0 -1.31092 
681 1 681 1.03999 0.199988 0 -1.63357 
682 1 682 1.03997 0.239999 0 -2.04813 
683 1 683 1.03994 0.280012 0 -2.24677 
684 1 684 1.03992 0.320026 0 -1.92957 
685 1 685 1.0399 0.36004 0 -1.24774 
686 1 686 1.03987 0.400052 0 -0.936604 
687 1 687 1.03985 0.440067 0 -1.08232 
688 1 688 1.03981 0.48008 0 -1.87236 
689 1 689 1.03978 0.520094 0 -3.09122 
690 1 690 1.03973 0.560107 0 -4.02482 
691 1 691 1.03968 0.60012 0 -4.59911 
692 1 692 1.03962 0.640133 0 -4.38397 
693 1 693 1.03956 0.680145 0 -3.72119 
694 1 694 1.03951 0.720154 0 -3.04185 
695 1 695 1.03947 0.760164 0 -2.94824 
696 1 696 1.03946 0.800176 0 -3.15192 
697 1 697 1.03945 0.840188 0 -3.22498 
698 1 698 1.03947 0.880203 0 -2.11718 
699 1 699 1.03948 0.920213 0 -0.417866 
700 1 700 1.03951 0.960225 0 0.285107 
701 1 701 1.03953 1.00024 0 0.553821 
702 1 702 1.08 0 0 0 
703 1 703 1.07999 0.0399899 0 -1.22376 
704 1 704 1.08 0.0799849 0 -1.50107 
705 1 705 1.08 0.119982 0 -1.42314 
706 1 706 1.07999 0.159986 0 -1.04603 
707 1 707 1.07996 0.199992 0 -0.780827 
708 1 708 1.07994 0.240003 0 -0.951277 
709 1 709 1.07991 0.280017 0 -1.07334 
710 1 710 1.07989 0.32003 0 -0.630991 
711 1 711 1.07987 0.360044 0 0.153697 
712 1 712 1.07984 0.400057 0 0.384235 
713 1 713 1.07982 0.440071 0 -0.0560718 
714 1 714 1.07979 0.480084 0 -1.14075 
715 1 715 1.07976 0.520098 0 -2.57273 
716 1 716 1.07972 0.560109 0 -3.61371 
717 1 717 1.07967 0.600122 0 -4.16384 
718 1 718 1.07962 0.640132 0 -3.84528 
719 1 719 1.07957 0.680143 0 -3.19911 
720 1 720 1.07951 0.72015 0 -2.58422 
721 1 721 1.07947 0.760157 0 -2.68386 
722 1 722 1.07945 0.800166 0 -3.14121 
723 1 723 1.07944 0.840176 0 -3.32822 
724 1 724 1.07945 0.880192 0 -2.55705 
725 1 725 1.07947 0.920202 0 -0.914937 
726 1 726 1.07949 0.960215 0 0.130436 
727 1 727 1.0795 1.00023 0 0.526143 
728 1 728 1.12 0 0 0 
729 1 729 1.11999 0.0399896 0 -1.10893 
730 1 730 1.11998 0.0799834 0 -1.4901 
731 1 731 1.11998 0.119982 0 -1.51487 
732 1 732 1.11996 0.159989 0 -0.929269 
733 1 733 1.11993 0.199997 0 -0.219394 
734 1 734 1.1199 0.240009 0 -0.0958449 
735 1 735 1.11988 0.280023 0 -0.0886282 
736 1 736 1.11986 0.320035 0 0.371283 
737 1 737 1.11984 0.360049 0 1.06876 
738 1 738 1.11981 0.400062 0 1.14924 
739 1 739 1.11979 0.440076 0 0.466495 
740 1 740 1.11976 0.480089 0 -0.811753 
741 1 741 1.11973 0.520103 0 -2.28918 
742 1 742 1.11968 0.560115 0 -3.27207 
743 1 743 1.11964 0.600128 0 -3.69014 
744 1 744 1.11958 0.640137 0 -3.26 
745 1 745 1.11953 0.680146 0 -2.66311 
746 1 746 1.11949 0.720149 0 -2.07602 
747 1 747 1.11945 0.760153 0 -2.25389 
748 1 748 1.11943 0.800158 0 -2.92749 
749 1 749 1.11942 0.840166 0 -3.309 
750 1 750 1.11944 0.88018 0 -2.99414 
751 1 751 1.11945 0.920191 0 -1.57329 
752 1 752 1.11946 0.960208 0 -0.331104 
753 1 753 1.11947 1.00022 0 0.134315 
754 1 754 1.16 0 0 0 
755 1 755 1.15998 0.0399873 0 -0.800027 
756 1 756 1.15997 0.0799799 0 -1.29303 
757 1 757 1.15996 0.119981 0 -1.53065 
758 1 758 1.15993 0.15999 0 -0.942036 
759 1 759 1.1599 0.200001 0 -0.0393227 
760 1 760 1.15987 0.240013 0 0.261491 
761 1 761 1.15984 0.280027 0 0.35365 
762 1 762 1.15982 0.32004 0 0.755691 
763 1 763 1.1598 0.360053 0 1.24549 
764 1 764 1.15978 0.400065 0 1.08357 
765 1 765 1.15976 0.440077 0 0.212975 
766 1 766 1.15973 0.480089 0 -1.0475 
767 1 767 1.1597 0.520102 0 -2.31131 
768 1 768 1.15966 0.560114 0 -3.03626 
769 1 769 1.15963 0.600127 0 -3.19191 
770 1 770 1.15959 0.640134 0 -2.58783 
771 1 771 1.15954 0.680142 0 -2.05235 
772 1 772 1.1595 0.720144 0 -1.55626 
773 1 773 1.15946 0.760147 0 -1.73478 
774 1 774 1.15944 0.80015 0 -2.49518 
775 1 775 1.15942 0.840156 0 -3.0269 
776 1 776 1.15942 0.880169 0 -3.18486 
777 1 777 1.15943 0.920181 0 -2.18804 
778 1 778 1.15943 0.9602 0 -0.889722 
779 1 779 1.15943 1.00022 0 -0.337833 
780 1 780 1.2 0 0 0 
781 1 781 1.19998 0.0399867 0 -0.40877 