ITEM: TIMESTEP
0
ITEM: NUMBER OF ATOMS
6875
ITEM: BOX BOUNDS sm sm sm
0 4
0 2
0 0
ITEM: ATOMS id type tag x y z damage s11 s22 s33 s12 s13 s23 vx T ienergy 
1 1 1 0.0199984 0.02 0 0 -0.00268816 -0.0034309 -0.00195253 -0.00110587 0 0 -0.181918 0 0 
2 1 2 0.0199982 0.0599992 0 0 0.00360907 -0.00255954 0.000351979 -0.000575107 0 0 -0.34732 0 0 
3 1 3 0.0199998 0.0999991 0 0 0.0231098 0.00916359 0.0103527 -0.00259306 0 0 -0.0631936 0 0 
4 1 4 0.020003 0.139999 0 0 0.0531924 0.0252779 0.0251481 -0.000229689 0 0 -0.0626582 0 0 
5 1 5 0.0200043 0.179999 0 0 0.0787038 0.0318315 0.0354186 -0.00482912 0 0 -0.107427 0 0 
6 1 6 0.0200055 0.219997 0 0 0.0939195 0.0353297 0.0414117 -0.00975775 0 0 -0.244962 0 0 
7 1 7 0.0200054 0.259995 0 0 0.0918164 0.0243645 0.0372281 -0.0226637 0 0 -0.260325 0 0 
8 1 8 0.0200046 0.299992 0 0 0.0769325 0.0181045 0.03046 -0.0368976 0 0 -0.328506 0 0 
9 1 9 0.0200019 0.33999 0 0 0.0467314 0.00659443 0.0171019 -0.0510369 0 0 -0.264795 0 0 
10 1 10 0.0199998 0.379987 0 0 0.0157427 -0.000470958 0.00491331 -0.0572312 0 0 -0.278981 0 0 
11 1 11 0.0199965 0.419987 0 0 -0.0134757 -0.00699256 -0.00653743 -0.0613746 0 0 -0.248492 0 0 
12 1 12 0.0199937 0.459988 0 0 -0.0369234 -0.00950831 -0.0148593 -0.0563804 0 0 -0.325962 0 0 
13 1 13 0.0199903 0.49999 0 0 -0.0485596 -0.012638 -0.019592 -0.0486607 0 0 -0.560094 0 0 
14 1 14 0.0199869 0.539991 0 0 -0.054595 -0.0111103 -0.0210384 -0.0406265 0 0 -0.639426 0 0 
15 1 15 0.0199797 0.579994 0 0 -0.0690123 -0.0136992 -0.0264908 -0.0310371 0 0 -0.730908 0 0 
16 1 16 0.0199729 0.619997 0 0 -0.0781795 -0.0168164 -0.0304296 -0.0141787 0 0 -1.26894 0 0 
17 1 17 0.0199675 0.660001 0 0 -0.0984564 -0.0210896 -0.038301 -0.00598739 0 0 -1.3878 0 0 
18 1 18 0.0199677 0.700004 0 0 -0.126443 -0.0357298 -0.0519686 0.0170317 0 0 -1.77506 0 0 
19 1 19 0.0199711 0.740008 0 0 -0.138419 -0.0497498 -0.0603046 0.0294993 0 0 -1.68608 0 0 
20 1 20 0.0199761 0.780009 0 0 -0.152051 -0.0569076 -0.0669719 0.0390938 0 0 -1.12175 0 0 
21 1 21 0.0199787 0.820012 0 0 -0.170464 -0.071317 -0.0774986 0.047482 0 0 -0.863806 0 0 
22 1 22 0.019983 0.860012 0 0 -0.178737 -0.084959 -0.0845299 0.053422 0 0 -0.700655 0 0 
23 1 23 0.0199851 0.900013 0 0 -0.167529 -0.0699412 -0.0761153 0.0552598 0 0 -0.577722 0 0 
24 1 24 0.0199862 0.940015 0 0 -0.183129 -0.0670734 -0.080208 0.058814 0 0 -0.262704 0 0 
25 1 25 0.0199803 0.980022 0 0 -0.232622 -0.0793855 -0.110014 0.0594408 0 0 -0.937392 0 0 
26 1 26 0.0600009 0.0199994 0 0 0.000718698 -0.00650906 -0.00184502 -0.000313097 0 0 -0.11849 0 0 
27 1 27 0.0600045 0.0599979 0 0 0.0131721 -0.00323302 0.00319577 0.00509045 0 0 -0.351245 0 0 
28 1 28 0.0600063 0.0999969 0 0 0.027194 0.00693916 0.0109499 0.00232112 0 0 -0.138629 0 0 
29 1 29 0.0600102 0.139996 0 0 0.0402482 0.0133356 0.0171829 0.00712265 0 0 -0.56381 0 0 
30 1 30 0.0600148 0.179994 0 0 0.0537217 0.00643714 0.0192842 -0.00324415 0 0 -0.498059 0 0 
31 1 31 0.0600192 0.21999 0 0 0.0734745 0.00775924 0.0260325 -0.00891065 0 0 -0.892435 0 0 
32 1 32 0.0600199 0.259984 0 0 0.0732931 -0.0124683 0.0194951 -0.025825 0 0 -0.768501 0 0 
33 1 33 0.0600182 0.299977 0 0 0.0691211 -0.0104671 0.0188031 -0.0356415 0 0 -0.633461 0 0 
34 1 34 0.0600122 0.339971 0 0 0.0410454 -0.0181416 0.00735078 -0.0510749 0 0 -0.0537972 0 0 
35 1 35 0.0600057 0.379966 0 0 0.00974536 -0.0117196 -0.000617444 -0.0478872 0 0 0.255082 0 0 
36 1 36 0.0599991 0.419965 0 0 -0.0222443 -0.00909082 -0.0100237 -0.0513108 0 0 0.635534 0 0 
37 1 37 0.0599955 0.459966 0 0 -0.0432579 0.0006635 -0.013635 -0.0391704 0 0 1.01849 0 0 
38 1 38 0.0599941 0.49997 0 0 -0.0610172 0.000163131 -0.019487 -0.0329277 0 0 0.988504 0 0 
39 1 39 0.0599958 0.539975 0 0 -0.0716031 0.004641 -0.0214442 -0.0245511 0 0 0.959375 0 0 
40 1 40 0.0599978 0.579982 0 0 -0.0864781 0.00907009 -0.0247922 -0.0255137 0 0 1.0639 0 0 
41 1 41 0.0600012 0.619991 0 0 -0.114218 -0.00084599 -0.036864 -0.00710941 0 0 0.969447 0 0 
42 1 42 0.0600005 0.660001 0 0 -0.132624 0.000877383 -0.0422116 -0.0141437 0 0 1.86205 0 0 
43 1 43 0.0599944 0.700011 0 0 -0.152442 -0.0138187 -0.0532797 0.00966437 0 0 1.88037 0 0 
44 1 44 0.0599884 0.74002 0 0 -0.165779 -0.0297945 -0.0626792 0.0161208 0 0 1.53157 0 0 
45 1 45 0.059982 0.780027 0 0 -0.173599 -0.0427469 -0.0693415 0.0262152 0 0 1.58508 0 0 
46 1 46 0.0599768 0.820032 0 0 -0.159561 -0.0458651 -0.0658362 0.0372055 0 0 0.608818 0 0 
47 1 47 0.0599727 0.860036 0 0 -0.169115 -0.0614206 -0.0738975 0.0443459 0 0 0.325976 0 0 
48 1 48 0.0599696 0.90004 0 0 -0.177938 -0.0512798 -0.0734633 0.0594165 0 0 -0.421031 0 0 
49 1 49 0.0599644 0.940048 0 0 -0.182848 -0.0221391 -0.0657004 0.0534488 0 0 -0.275627 0 0 
50 1 50 0.0599508 0.980059 0 0 -0.175109 -0.012154 -0.0600216 0.0354055 0 0 -1.75273 0 0 
51 1 51 0.0999996 0.0199992 0 0 0.00498545 -0.00445448 0.00016696 0.00514509 0 0 -0.22491 0 0 
52 1 52 0.100002 0.0599987 0 0 0.0177145 0.00162796 0.00620182 0.0134082 0 0 -0.69685 0 0 
53 1 53 0.100007 0.0999966 0 0 0.0175316 -0.00734111 0.00327769 0.00844003 0 0 -0.400134 0 0 
54 1 54 0.100014 0.139994 0 0 0.0254946 -0.00589024 0.00629454 0.0149961 0 0 -0.896329 0 0 
55 1 55 0.100021 0.179989 0 0 0.0306817 -0.0234657 0.00232161 0.00474009 0 0 -0.860624 0 0 
56 1 56 0.100027 0.219983 0 0 0.0435179 -0.0214318 0.00708422 -0.00133558 0 0 -1.46782 0 0 
57 1 57 0.10003 0.259975 0 0 0.0409753 -0.0435842 -0.000829727 -0.0203772 0 0 -1.17015 0 0 
58 1 58 0.100026 0.299966 0 0 0.0407663 -0.0288739 0.00381846 -0.0324791 0 0 -1.10388 0 0 
59 1 59 0.100016 0.339958 0 0 0.015867 -0.038488 -0.00724041 -0.0484837 0 0 -0.559205 0 0 
60 1 60 0.100004 0.379954 0 0 -0.000421622 -0.00988328 -0.00329095 -0.0426101 0 0 0.038035 0 0 
61 1 61 0.0999912 0.419953 0 0 -0.0292166 -0.00923469 -0.012308 -0.0421246 0 0 0.428534 0 0 
62 1 62 0.0999799 0.459957 0 0 -0.0469422 0.0108842 -0.0115431 -0.0291927 0 0 0.558145 0 0 
63 1 63 0.0999714 0.499962 0 0 -0.0702713 0.00718011 -0.0202071 -0.0208193 0 0 -0.137034 0 0 
64 1 64 0.0999632 0.539971 0 0 -0.086306 0.0168231 -0.0222536 -0.0156172 0 0 -0.59893 0 0 
65 1 65 0.0999515 0.57998 0 0 -0.102049 0.0140998 -0.0281701 -0.018179 0 0 -1.11526 0 0 
66 1 66 0.0999384 0.619991 0 0 -0.114457 0.0204915 -0.030101 -0.00993595 0 0 -1.66064 0 0 
67 1 67 0.099928 0.660003 0 0 -0.13005 0.0179116 -0.0359254 -0.0154743 0 0 -1.72299 0 0 
68 1 68 0.0999238 0.700016 0 0 -0.132382 0.0152621 -0.0375236 0.00516749 0 0 -1.66647 0 0 
69 1 69 0.0999262 0.740027 0 0 -0.145043 0.00369455 -0.0452922 0.00751768 0 0 -1.3247 0 0 
70 1 70 0.0999287 0.780039 0 0 -0.155557 -0.00583184 -0.0517191 0.0189639 0 0 -0.927874 0 0 
71 1 71 0.0999334 0.820048 0 0 -0.164145 -0.0278432 -0.0615304 0.0390013 0 0 -1.66558 0 0 
72 1 72 0.0999373 0.860057 0 0 -0.156984 -0.0157782 -0.0553724 0.032865 0 0 -0.944242 0 0 
73 1 73 0.0999363 0.900067 0 0 -0.177675 -0.0220985 -0.0640251 0.0505968 0 0 -1.53943 0 0 
74 1 74 0.0999332 0.940077 0 0 -0.162582 -0.00522677 -0.0537756 0.0342146 0 0 -1.72011 0 0 
75 1 75 0.0999231 0.980088 0 0 -0.15538 -0.021183 -0.056587 0.0302259 0 0 -2.99404 0 0 
76 1 76 0.140003 0.0200002 0 0 0.00868207 0.00569691 0.00460634 0.0107743 0 0 -0.0937701 0 0 
77 1 77 0.140009 0.0599997 0 0 0.0130128 0.00100183 0.004496 0.014764 0 0 -0.623254 0 0 
78 1 78 0.140013 0.0999975 0 0 0.0109799 -0.0178049 -0.00218348 0.0119118 0 0 -0.650314 0 0 
79 1 79 0.140019 0.139993 0 0 0.0153959 -0.0221187 -0.0021465 0.020585 0 0 -1.11579 0 0 
80 1 80 0.140029 0.179987 0 0 0.0115037 -0.0447313 -0.010638 0.0166219 0 0 -1.10788 0 0 
81 1 81 0.140036 0.219978 0 0 0.0200161 -0.0428702 -0.00731399 0.0110691 0 0 -1.65406 0 0 
82 1 82 0.14004 0.259969 0 0 0.0129387 -0.0611805 -0.0154513 -0.00462861 0 0 -1.47212 0 0 
83 1 83 0.140035 0.29996 0 0 0.0103006 -0.0406848 -0.0097304 -0.0235445 0 0 -1.26913 0 0 
84 1 84 0.140022 0.339953 0 0 -0.0148729 -0.0480453 -0.0201579 -0.0350246 0 0 -0.508239 0 0 
85 1 85 0.140006 0.379949 0 0 -0.0272712 -0.0151288 -0.0135779 -0.0357245 0 0 0.526505 0 0 
86 1 86 0.13999 0.41995 0 0 -0.0590732 -0.0163164 -0.0241469 -0.0291898 0 0 1.1307 0 0 
87 1 87 0.139978 0.459954 0 0 -0.0724392 0.00596779 -0.0212887 -0.019436 0 0 1.51994 0 0 
88 1 88 0.139969 0.499961 0 0 -0.0962736 0.00376381 -0.0296357 -0.00675019 0 0 1.07499 0 0 
89 1 89 0.139965 0.53997 0 0 -0.107692 0.0135739 -0.0301494 -0.00778838 0 0 0.615566 0 0 
90 1 90 0.139962 0.579981 0 0 -0.127508 0.00855292 -0.0381102 -0.00833137 0 0 0.189812 0 0 
91 1 91 0.13996 0.619992 0 0 -0.149577 0.00304849 -0.0469531 -0.00954889 0 0 0.416978 0 0 
92 1 92 0.139953 0.660006 0 0 -0.171605 0.00721227 -0.0526809 -0.0160192 0 0 1.28789 0 0 
93 1 93 0.139945 0.70002 0 0 -0.195997 -0.00745476 -0.0652107 0.00417551 0 0 1.48801 0 0 
94 1 94 0.139937 0.740034 0 0 -0.1947 -0.0026835 -0.0632641 0.00512732 0 0 1.85695 0 0 
95 1 95 0.13993 0.780048 0 0 -0.186163 0.00160268 -0.0591542 0.0145568 0 0 1.63877 0 0 
96 1 96 0.139926 0.820062 0 0 -0.18998 -0.0142483 -0.0654586 0.0316233 0 0 -0.00952298 0 0 
97 1 97 0.139923 0.860075 0 0 -0.182931 0.00157582 -0.0581226 0.0231281 0 0 -0.224515 0 0 
98 1 98 0.139917 0.900088 0 0 -0.17095 -0.00647978 -0.0568569 0.031714 0 0 -1.44173 0 0 
99 1 99 0.139912 0.940099 0 0 -0.157252 -0.00472552 -0.0519159 0.0283938 0 0 -2.08826 0 0 
100 1 100 0.139902 0.98011 0 0 -0.151739 -0.00460944 -0.0501096 0.0169503 0 0 -3.22027 0 0 
101 1 101 0.180002 0.0200011 0 0 0.0167145 0.019108 0.0114878 0.0147659 0 0 -0.170846 0 0 
102 1 102 0.180007 0.0600013 0 0 0.014446 0.000749308 0.00487645 0.0141343 0 0 -0.717496 0 0 
103 1 103 0.180013 0.0999991 0 0 0.00443302 -0.0216966 -0.00553043 0.0152952 0 0 -0.786092 0 0 
104 1 104 0.180022 0.139994 0 0 0.000526446 -0.0356577 -0.011252 0.0225289 0 0 -1.14294 0 0 
105 1 105 0.180031 0.179987 0 0 -0.00448377 -0.0516542 -0.0179808 0.0238817 0 0 -1.45262 0 0 
106 1 106 0.180039 0.219979 0 0 -0.00773337 -0.0592975 -0.0214679 0.0183045 0 0 -2.04256 0 0 
107 1 107 0.180042 0.25997 0 0 -0.0181818 -0.0642735 -0.0264134 0.00498752 0 0 -1.90913 0 0 
108 1 108 0.180036 0.299962 0 0 -0.0183985 -0.0478415 -0.0212218 -0.0128092 0 0 -1.60586 0 0 
109 1 109 0.18002 0.339957 0 0 -0.0257947 -0.0385 -0.0206017 -0.0239638 0 0 -0.796512 0 0 
110 1 110 0.179999 0.379955 0 0 -0.0308894 -0.0125572 -0.0139154 -0.0253951 0 0 0.0933891 0 0 
111 1 111 0.179977 0.419957 0 0 -0.0525205 -0.00757626 -0.0192457 -0.0211651 0 0 0.753935 0 0 
112 1 112 0.179958 0.459962 0 0 -0.067529 0.0103154 -0.0183214 -0.00984831 0 0 0.614722 0 0 
113 1 113 0.179942 0.499969 0 0 -0.093034 0.00686245 -0.0276044 -0.00375041 0 0 -0.141903 0 0 
114 1 114 0.179927 0.539979 0 0 -0.121089 0.00301022 -0.0378307 -0.00261291 0 0 -1.14198 0 0 
115 1 115 0.17991 0.579989 0 0 -0.133835 0.00833389 -0.0402109 -0.00750328 0 0 -1.96487 0 0 
116 1 116 0.179892 0.62 0 0 -0.15443 -0.00528525 -0.0511838 -0.00628523 0 0 -2.47964 0 0 
117 1 117 0.179876 0.660012 0 0 -0.143949 0.0177539 -0.0404344 -0.011492 0 0 -2.40095 0 0 
118 1 118 0.179869 0.700026 0 0 -0.151051 0.0183676 -0.0425185 0.00496734 0 0 -2.10415 0 0 
119 1 119 0.179869 0.740041 0 0 -0.1622 0.0213836 -0.0451246 0.0103154 0 0 -1.72102 0 0 
120 1 120 0.179873 0.780057 0 0 -0.15567 0.0258743 -0.0415928 0.0193575 0 0 -1.20057 0 0 
121 1 121 0.179878 0.820072 0 0 -0.160294 0.020681 -0.0447366 0.0276338 0 0 -1.67723 0 0 
122 1 122 0.179882 0.860088 0 0 -0.160408 0.0246926 -0.0434831 0.0172121 0 0 -1.56681 0 0 
123 1 123 0.179882 0.900103 0 0 -0.166914 -0.00298157 -0.0544409 0.0296882 0 0 -2.77306 0 0 
124 1 124 0.179882 0.940116 0 0 -0.156942 0.0117468 -0.0465416 0.0168331 0 0 -3.02482 0 0 
125 1 125 0.179875 0.980128 0 0 -0.163544 -0.00495136 -0.0540114 0.011757 0 0 -3.71141 0 0 
126 1 126 0.220005 0.0200013 0 0 0.0141856 0.0228404 0.0118722 0.0176585 0 0 0.0207855 0 0 
127 1 127 0.220013 0.0600024 0 0 0.00944601 0.00202605 0.0036875 0.0128978 0 0 -0.557522 0 0 
128 1 128 0.220018 0.1 0 0 0.00594135 -0.0205375 -0.00467018 0.0175969 0 0 -0.89274 0 0 
129 1 129 0.220026 0.139996 0 0 0.00427472 -0.0306695 -0.0084512 0.0243319 0 0 -1.22661 0 0 
130 1 130 0.220035 0.179989 0 0 -0.0162549 -0.0562288 -0.0232194 0.0256018 0 0 -1.57954 0 0 
131 1 131 0.220043 0.219982 0 0 -0.0249547 -0.055793 -0.0258625 0.0221299 0 0 -2.03466 0 0 
132 1 132 0.220045 0.259975 0 0 -0.0317979 -0.0519908 -0.0268364 0.00935464 0 0 -1.855 0 0 
133 1 133 0.220037 0.29997 0 0 -0.0327498 -0.0351927 -0.0217636 -0.00285091 0 0 -1.69512 0 0 
134 1 134 0.220019 0.339968 0 0 -0.046055 -0.034777 -0.0259015 -0.0176146 0 0 -0.753383 0 0 
135 1 135 0.219996 0.379968 0 0 -0.0523113 -0.00818105 -0.0193817 -0.0157738 0 0 0.135866 0 0 
136 1 136 0.219973 0.41997 0 0 -0.0776718 -0.0224289 -0.0320731 -0.0138288 0 0 1.07793 0 0 
137 1 137 0.219952 0.459975 0 0 -0.0900465 0.00196925 -0.0282198 -0.000676446 0 0 1.13478 0 0 
138 1 138 0.219937 0.499982 0 0 -0.120858 -0.0151859 -0.0435989 0.00274459 0 0 0.686679 0 0 
139 1 139 0.219925 0.539989 0 0 -0.144109 -0.0114726 -0.0498599 0.00402793 0 0 -0.0997485 0 0 
140 1 140 0.219917 0.579999 0 0 -0.166022 -0.016627 -0.0585404 0.00262422 0 0 -0.893934 0 0 
141 1 141 0.219909 0.620009 0 0 -0.189252 -0.0224735 -0.0678668 -0.00451273 0 0 -0.451722 0 0 
142 1 142 0.219898 0.660021 0 0 -0.215251 -0.0290958 -0.0783281 -0.00235732 0 0 0.0990786 0 0 
143 1 143 0.219887 0.700034 0 0 -0.223255 -0.022803 -0.0788779 0.00129973 0 0 1.10839 0 0 
144 1 144 0.219876 0.740049 0 0 -0.221987 -0.00319856 -0.0721812 0.00859918 0 0 1.46315 0 0 
145 1 145 0.21987 0.780065 0 0 -0.224505 -0.00283897 -0.0728721 0.0180802 0 0 1.19185 0 0 
146 1 146 0.219867 0.820083 0 0 -0.212201 0.00959309 -0.0649343 0.0243294 0 0 0.217795 0 0 
147 1 147 0.219865 0.8601 0 0 -0.18795 0.0165726 -0.054919 0.0205638 0 0 -0.513047 0 0 
148 1 148 0.219862 0.900115 0 0 -0.182173 -0.00181536 -0.0589592 0.0281431 0 0 -2.20238 0 0 
149 1 149 0.219859 0.940129 0 0 -0.176921 0.0105833 -0.0533213 0.0165696 0 0 -2.82147 0 0 
150 1 150 0.219849 0.980144 0 0 -0.183418 0.0018961 -0.0581897 0.00962068 0 0 -3.70018 0 0 
151 1 151 0.260003 0.0200012 0 0 0.0070323 0.0162909 0.00747903 0.0167525 0 0 -0.0711525 0 0 
152 1 152 0.260009 0.0600024 0 0 0.00305058 0.0058023 0.00284946 0.0108785 0 0 -0.710101 0 0 
153 1 153 0.260017 0.100002 0 0 -0.0045748 -0.0190542 -0.0075608 0.0192002 0 0 -0.953983 0 0 
154 1 154 0.260026 0.139998 0 0 -0.00959778 -0.0311787 -0.013056 0.0221762 0 0 -1.37613 0 0 
155 1 155 0.260034 0.179992 0 0 -0.0264136 -0.0548772 -0.0260408 0.02344 0 0 -1.78978 0 0 
156 1 156 0.26004 0.219987 0 0 -0.0284275 -0.0366629 -0.0208421 0.0228057 0 0 -2.06521 0 0 
157 1 157 0.26004 0.259984 0 0 -0.043515 -0.0362752 -0.0255516 0.00909351 0 0 -1.8757 0 0 
158 1 158 0.26003 0.299983 0 0 -0.0488864 -0.0189487 -0.0217245 -0.00152897 0 0 -1.88413 0 0 
159 1 159 0.260011 0.339984 0 0 -0.0528481 -0.01678 -0.0223039 -0.014843 0 0 -1.07669 0 0 
160 1 160 0.259985 0.379987 0 0 -0.0418973 0.00743894 -0.0110366 -0.0124429 0 0 -0.548943 0 0 
161 1 161 0.259958 0.419991 0 0 -0.0577768 -0.00750954 -0.0209163 -0.0139731 0 0 0.0577434 0 0 
162 1 162 0.259931 0.459996 0 0 -0.0696965 0.00385075 -0.0210998 -0.00196187 0 0 -0.194256 0 0 
163 1 163 0.259908 0.500002 0 0 -0.0971688 -0.0100299 -0.0343572 -5.48465e-05 0 0 -0.919797 0 0 
164 1 164 0.259886 0.540008 0 0 -0.123237 -0.0110409 -0.0430339 -0.0020595 0 0 -1.64377 0 0 
165 1 165 0.259862 0.580016 0 0 -0.14978 -0.0187578 -0.054017 0.0016414 0 0 -2.82281 0 0 
166 1 166 0.259839 0.620025 0 0 -0.155889 -0.0165723 -0.0552736 -0.00573947 0 0 -2.97613 0 0 
167 1 167 0.25982 0.660034 0 0 -0.146794 -0.00233249 -0.0477883 0.00033859 0 0 -3.27376 0 0 
168 1 168 0.259809 0.700045 0 0 -0.156634 -0.00727119 -0.0525254 0.00694653 0 0 -2.71874 0 0 
169 1 169 0.259807 0.740058 0 0 -0.15279 0.0236346 -0.0413837 0.0146717 0 0 -2.07521 0 0 
170 1 170 0.259809 0.780074 0 0 -0.163414 0.0282668 -0.0433037 0.0200351 0 0 -1.41953 0 0 
171 1 171 0.259814 0.820092 0 0 -0.178458 0.0293504 -0.0477749 0.0274877 0 0 -1.70652 0 0 
172 1 172 0.259821 0.86011 0 0 -0.174971 0.0295643 -0.0465926 0.027895 0 0 -2.03732 0 0 
173 1 173 0.259825 0.900127 0 0 -0.177817 0.0116269 -0.0532522 0.0279236 0 0 -2.7592 0 0 
174 1 174 0.259824 0.940143 0 0 -0.182817 0.0202901 -0.052099 0.0152081 0 0 -3.0252 0 0 
175 1 175 0.259817 0.980159 0 0 -0.190557 0.00141546 -0.0606304 0.0110394 0 0 -3.82936 0 0 
176 1 176 0.300005 0.0200009 0 0 -0.00150157 0.00844792 0.0022314 0.0163364 0 0 0.142247 0 0 
177 1 177 0.300014 0.060002 0 0 -0.00110397 0.00827643 0.00230841 0.0152895 0 0 -0.368806 0 0 
178 1 178 0.300021 0.100002 0 0 -0.00209653 -0.00905904 -0.00356295 0.0203789 0 0 -0.988959 0 0 
179 1 179 0.300028 0.139999 0 0 -0.015129 -0.0310811 -0.0147953 0.0193726 0 0 -1.59577 0 0 
180 1 180 0.300035 0.179996 0 0 -0.0293875 -0.0369932 -0.0212613 0.02017 0 0 -1.72276 0 0 
181 1 181 0.300039 0.219993 0 0 -0.0456446 -0.0288461 -0.0238561 0.0168757 0 0 -1.99031 0 0 
182 1 182 0.300036 0.259993 0 0 -0.0614231 -0.0197152 -0.0259841 0.00329134 0 0 -2.06007 0 0 
183 1 183 0.300024 0.299996 0 0 -0.0647725 -0.00438327 -0.0221446 -0.00351249 0 0 -2.08701 0 0 
184 1 184 0.300004 0.340001 0 0 -0.0655306 0.00590889 -0.0190905 -0.0151863 0 0 -1.12229 0 0 
185 1 185 0.299979 0.380007 0 0 -0.0718273 -0.00145135 -0.0234709 -0.0115959 0 0 -0.648833 0 0 
186 1 186 0.299952 0.420011 0 0 -0.0783271 -0.00738064 -0.0274593 -0.0170361 0 0 0.174208 0 0 
187 1 187 0.299926 0.460016 0 0 -0.0950239 -0.0141727 -0.0349955 -0.00568339 0 0 0.304007 0 0 
188 1 188 0.299904 0.500021 0 0 -0.123344 -0.0310072 -0.0494766 -0.00320789 0 0 -0.170263 0 0 
189 1 189 0.299885 0.540026 0 0 -0.143241 -0.0280267 -0.0548958 -0.00583222 0 0 -0.498225 0 0 
190 1 190 0.299869 0.580032 0 0 -0.17083 -0.041841 -0.0681704 -0.000284647 0 0 -1.4271 0 0 
191 1 191 0.299856 0.62004 0 0 -0.197701 -0.0443814 -0.0776039 -0.00659955 0 0 -0.990634 0 0 
192 1 192 0.299843 0.660048 0 0 -0.221902 -0.0503335 -0.087276 -0.000438519 0 0 -0.533012 0 0 
193 1 193 0.299828 0.700058 0 0 -0.23203 -0.0398369 -0.0871568 0.000982859 0 0 0.612541 0 0 
194 1 194 0.299814 0.740071 0 0 -0.24324 -0.0352417 -0.089279 0.0169219 0 0 0.813334 0 0 
195 1 195 0.299806 0.780085 0 0 -0.230915 -0.00343887 -0.0751204 0.0204833 0 0 1.09797 0 0 
196 1 196 0.299801 0.820103 0 0 -0.22245 0.0054293 -0.069556 0.0289336 0 0 0.555252 0 0 
197 1 197 0.299801 0.860121 0 0 -0.212288 0.0126114 -0.0639987 0.0340507 0 0 -0.516332 0 0 
198 1 198 0.299801 0.900139 0 0 -0.211235 0.0117623 -0.0639286 0.0251858 0 0 -1.58684 0 0 
199 1 199 0.299796 0.940157 0 0 -0.208944 0.0132293 -0.0627407 0.0134778 0 0 -2.49782 0 0 
200 1 200 0.299786 0.980174 0 0 -0.210777 -0.000189174 -0.0676281 0.0123766 0 0 -3.68334 0 0 
201 1 201 0.340002 0.0200011 0 0 0.000505085 0.0105574 0.00355041 0.0130499 0 0 0.0338558 0 0 
202 1 202 0.340008 0.0600023 0 0 -0.00671552 0.00435641 -0.00074595 0.0168924 0 0 -0.554567 0 0 
203 1 203 0.340017 0.100003 0 0 -0.0175266 -0.0108666 -0.00908714 0.018051 0 0 -1.14375 0 0 
204 1 204 0.340025 0.140001 0 0 -0.0334402 -0.0340565 -0.0216177 0.0166479 0 0 -1.70786 0 0 
205 1 205 0.34003 0.179999 0 0 -0.0398836 -0.0234523 -0.0202864 0.0125547 0 0 -1.80817 0 0 
206 1 206 0.34003 0.219999 0 0 -0.0665099 -0.0242967 -0.0290889 0.00464167 0 0 -2.08221 0 0 
207 1 207 0.340023 0.260003 0 0 -0.0811106 -0.00541907 -0.0277146 -0.00425224 0 0 -1.9202 0 0 
208 1 208 0.34001 0.30001 0 0 -0.0835539 0.0131589 -0.0225416 -0.00850941 0 0 -1.96955 0 0 
209 1 209 0.339989 0.340018 0 0 -0.0797866 0.0168532 -0.020152 -0.0187004 0 0 -1.4583 0 0 
210 1 210 0.339964 0.380027 0 0 -0.070411 0.0149798 -0.0177473 -0.0155685 0 0 -1.47283 0 0 
211 1 211 0.339936 0.420034 0 0 -0.0681432 0.00193209 -0.0212057 -0.020256 0 0 -1.20169 0 0 
212 1 212 0.339906 0.460039 0 0 -0.06703 -0.00132998 -0.0218994 -0.0146057 0 0 -1.259 0 0 
213 1 213 0.339877 0.500043 0 0 -0.0871811 -0.0214185 -0.0348023 -0.0143162 0 0 -1.88543 0 0 
214 1 214 0.339848 0.540047 0 0 -0.100976 -0.0163431 -0.0375939 -0.0163152 0 0 -2.10689 0 0 
215 1 215 0.339818 0.580052 0 0 -0.122422 -0.0294208 -0.0486615 -0.0103799 0 0 -2.90801 0 0 
216 1 216 0.33979 0.620057 0 0 -0.122705 -0.0126726 -0.0433838 -0.0122759 0 0 -3.08419 0 0 
217 1 217 0.339767 0.660065 0 0 -0.121335 -0.0126231 -0.0429274 0.00255675 0 0 -3.65154 0 0 
218 1 218 0.339753 0.700073 0 0 -0.114725 0.0142157 -0.0322037 0.000675788 0 0 -2.92219 0 0 
219 1 219 0.339745 0.740085 0 0 -0.132228 0.0159201 -0.0372667 0.0158153 0 0 -2.43998 0 0 
220 1 220 0.339745 0.780099 0 0 -0.152454 0.0249974 -0.0408398 0.0238506 0 0 -1.59892 0 0 
221 1 221 0.339748 0.820115 0 0 -0.169988 0.0272719 -0.0457295 0.033615 0 0 -1.44601 0 0 
222 1 222 0.339755 0.860133 0 0 -0.182502 0.0270431 -0.0498232 0.0390171 0 0 -1.68112 0 0 
223 1 223 0.339759 0.900152 0 0 -0.195571 0.0237221 -0.055075 0.0274878 0 0 -2.07299 0 0 
224 1 224 0.339757 0.94017 0 0 -0.204 0.0168796 -0.0599849 0.0144049 0 0 -2.73948 0 0 
225 1 225 0.33975 0.980188 0 0 -0.212638 0.00679758 -0.0659822 0.00994558 0 0 -3.52118 0 0 
226 1 226 0.380003 0.0200009 0 0 -0.00451606 0.00820792 0.00119149 0.00828325 0 0 0.193796 0 0 
227 1 227 0.380011 0.060002 0 0 -0.0159125 -0.00194953 -0.00571159 0.0169046 0 0 -0.270316 0 0 
228 1 228 0.380017 0.100003 0 0 -0.0244102 -0.0108884 -0.0112999 0.0142827 0 0 -1.07532 0 0 
229 1 229 0.380022 0.140002 0 0 -0.0460137 -0.029155 -0.024077 0.013734 0 0 -1.8439 0 0 
230 1 230 0.380025 0.180002 0 0 -0.0655222 -0.0233455 -0.0284709 0.00416722 0 0 -1.84669 0 0 
231 1 231 0.380021 0.220004 0 0 -0.0921916 -0.018499 -0.0354668 -0.00535748 0 0 -2.08393 0 0 
232 1 232 0.38001 0.260011 0 0 -0.103889 0.00402304 -0.0319949 -0.00950987 0 0 -2.00207 0 0 
233 1 233 0.379995 0.300021 0 0 -0.110769 0.0227954 -0.0281812 -0.0143945 0 0 -2.16594 0 0 
234 1 234 0.379975 0.340033 0 0 -0.118519 0.0147 -0.0332621 -0.0176532 0 0 -1.83818 0 0 
235 1 235 0.379952 0.380043 0 0 -0.110749 0.0114283 -0.0318171 -0.0138883 0 0 -1.57402 0 0 
236 1 236 0.379927 0.420052 0 0 -0.110239 -0.00540631 -0.0370512 -0.0193544 0 0 -1.14811 0 0 
237 1 237 0.3799 0.460058 0 0 -0.118923 -0.0310209 -0.0480484 -0.0132011 0 0 -0.942981 0 0 
238 1 238 0.379875 0.500061 0 0 -0.128215 -0.0397 -0.0538142 -0.0175164 0 0 -0.858208 0 0 
239 1 239 0.379849 0.540065 0 0 -0.14192 -0.0436446 -0.0594725 -0.0154171 0 0 -0.867365 0 0 
240 1 240 0.379829 0.580068 0 0 -0.157317 -0.0542055 -0.0677997 -0.00957552 0 0 -1.35684 0 0 
241 1 241 0.379811 0.620073 0 0 -0.173223 -0.0401867 -0.0684107 -0.0155266 0 0 -0.709306 0 0 
242 1 242 0.379793 0.660081 0 0 -0.211448 -0.058975 -0.0866982 -0.00132136 0 0 -0.627979 0 0 
243 1 243 0.379775 0.700089 0 0 -0.222219 -0.0403621 -0.0841817 -0.00431027 0 0 0.39634 0 0 
244 1 244 0.379756 0.7401 0 0 -0.23016 -0.0351521 -0.0850552 0.0105307 0 0 0.55664 0 0 
245 1 245 0.379743 0.780114 0 0 -0.219605 -0.00774769 -0.072878 0.0166063 0 0 0.963683 0 0 
246 1 246 0.379736 0.82013 0 0 -0.220419 -0.00480023 -0.0721931 0.0310957 0 0 0.632171 0 0 
247 1 247 0.379734 0.860147 0 0 -0.217586 0.0118702 -0.0659451 0.0335665 0 0 -0.0389945 0 0 
248 1 248 0.379732 0.900165 0 0 -0.219242 0.00922636 -0.0673221 0.0238898 0 0 -0.906507 0 0 
249 1 249 0.379726 0.940183 0 0 -0.222824 0.00283205 -0.0705321 0.0100814 0 0 -2.03416 0 0 
250 1 250 0.379716 0.980201 0 0 -0.235095 0.00455098 -0.0739077 0.00178826 0 0 -2.81897 0 0 
251 1 251 0.42 0.0200008 0 0 0.00417813 0.0107635 0.00479649 0.00507772 0 0 -0.0246482 0 0 
252 1 252 0.420004 0.0600018 0 0 -0.00913135 -0.000159124 -0.00296361 0.0147044 0 0 -0.625804 0 0 
253 1 253 0.42001 0.100003 0 0 -0.0363104 -0.0139568 -0.0160963 0.00731818 0 0 -1.1832 0 0 
254 1 254 0.420014 0.140003 0 0 -0.0668674 -0.0285985 -0.0305842 0.00662107 0 0 -1.90147 0 0 
255 1 255 0.420013 0.180005 0 0 -0.0899664 -0.0223519 -0.0359897 -0.00786474 0 0 -1.88522 0 0 
256 1 256 0.420003 0.22001 0 0 -0.118847 -0.0157428 -0.0431306 -0.0178108 0 0 -2.14251 0 0 
257 1 257 0.419989 0.260019 0 0 -0.137095 0.00584538 -0.0420589 -0.0205895 0 0 -2.0783 0 0 
258 1 258 0.419971 0.300031 0 0 -0.147862 0.0163698 -0.0421363 -0.0245894 0 0 -2.12828 0 0 
259 1 259 0.41995 0.340046 0 0 -0.141008 0.0261427 -0.0368059 -0.023042 0 0 -2.11064 0 0 
260 1 260 0.419928 0.380059 0 0 -0.132948 0.0117232 -0.0388418 -0.0169801 0 0 -2.2839 0 0 
261 1 261 0.419904 0.42007 0 0 -0.112756 0.00675343 -0.0339621 -0.0241094 0 0 -2.32362 0 0 
262 1 262 0.419876 0.460078 0 0 -0.106623 -0.0193687 -0.0403694 -0.0200184 0 0 -2.59107 0 0 
263 1 263 0.419846 0.500082 0 0 -0.10063 -0.0289353 -0.0415171 -0.0245585 0 0 -2.76742 0 0 
264 1 264 0.419814 0.540085 0 0 -0.0978395 -0.0230578 -0.0387361 -0.0275179 0 0 -2.49526 0 0 
265 1 265 0.41978 0.580088 0 0 -0.11764 -0.0411859 -0.0508981 -0.0180856 0 0 -2.94469 0 0 
266 1 266 0.419748 0.620092 0 0 -0.0980393 -0.00448961 -0.0328545 -0.0189814 0 0 -2.85894 0 0 
267 1 267 0.41972 0.660099 0 0 -0.0910132 -0.00349677 -0.0302827 -0.000727045 0 0 -3.51488 0 0 
268 1 268 0.419703 0.700107 0 0 -0.0809632 0.0303266 -0.0162192 -0.000544339 0 0 -2.94746 0 0 
269 1 269 0.419691 0.740118 0 0 -0.102588 0.0196428 -0.0265716 0.0169135 0 0 -2.58875 0 0 
270 1 270 0.419686 0.78013 0 0 -0.122055 0.0312175 -0.0291046 0.0233222 0 0 -1.69665 0 0 
271 1 271 0.419685 0.820145 0 0 -0.147914 0.0250456 -0.0393727 0.0345169 0 0 -1.28799 0 0 
272 1 272 0.419688 0.860162 0 0 -0.172198 0.025257 -0.0470989 0.0355634 0 0 -1.18274 0 0 
273 1 273 0.41969 0.900179 0 0 -0.193326 0.015243 -0.057084 0.0284406 0 0 -1.65319 0 0 
274 1 274 0.419687 0.940196 0 0 -0.212778 0.00472486 -0.0667052 0.00927207 0 0 -2.1951 0 0 
275 1 275 0.419675 0.980214 0 0 -0.240369 0.00738063 -0.0746927 -0.00253097 0 0 -2.53651 0 0 
276 1 276 0.460002 0.0200005 0 0 -0.00366114 0.00501956 0.00044278 0.00267087 0 0 0.00451637 0 0 
277 1 277 0.460006 0.0600009 0 0 -0.0247454 -0.0104838 -0.0112754 0.00896485 0 0 -0.61339 0 0 
278 1 278 0.460008 0.100002 0 0 -0.0461805 -0.0165786 -0.0201006 -0.00202518 0 0 -1.1454 0 0 
279 1 279 0.460006 0.140003 0 0 -0.0794325 -0.023232 -0.0328934 -0.00370462 0 0 -1.92605 0 0 
280 1 280 0.459999 0.180007 0 0 -0.116213 -0.0212207 -0.0440422 -0.0186847 0 0 -1.86825 0 0 
281 1 281 0.459985 0.220014 0 0 -0.146192 -0.0168795 -0.0522623 -0.0274369 0 0 -2.09883 0 0 
282 1 282 0.459966 0.260025 0 0 -0.162956 0.00645312 -0.0501557 -0.0299257 0 0 -2.07018 0 0 
283 1 283 0.459945 0.300039 0 0 -0.180361 0.00692209 -0.0555861 -0.0283247 0 0 -2.16083 0 0 
284 1 284 0.459925 0.340054 0 0 -0.174542 0.0230173 -0.0485588 -0.0247458 0 0 -2.40512 0 0 
285 1 285 0.459905 0.38007 0 0 -0.183521 0.000884763 -0.058533 -0.0210099 0 0 -2.51942 0 0 
286 1 286 0.459885 0.420082 0 0 -0.181616 -0.017226 -0.06373 -0.0217956 0 0 -2.47875 0 0 
287 1 287 0.459863 0.460092 0 0 -0.175253 -0.033893 -0.0670376 -0.0219445 0 0 -2.02309 0 0 
288 1 288 0.459839 0.500098 0 0 -0.183148 -0.0599748 -0.07794 -0.02165 0 0 -1.79725 0 0 
289 1 289 0.459814 0.540101 0 0 -0.170765 -0.0565629 -0.0728687 -0.0200153 0 0 -1.47354 0 0 
290 1 290 0.459791 0.580105 0 0 -0.168695 -0.0598098 -0.073245 -0.0152606 0 0 -1.31719 0 0 
291 1 291 0.45977 0.62011 0 0 -0.18147 -0.0436157 -0.0721521 -0.0152269 0 0 -0.679789 0 0 
292 1 292 0.459749 0.660118 0 0 -0.214773 -0.0577254 -0.0873628 -0.0028002 0 0 -0.388982 0 0 
293 1 293 0.459727 0.700127 0 0 -0.22373 -0.0356648 -0.0831587 -0.00381292 0 0 0.484599 0 0 
294 1 294 0.459704 0.740139 0 0 -0.227614 -0.0369743 -0.0848215 0.0131919 0 0 0.404207 0 0 
295 1 295 0.459687 0.780151 0 0 -0.216753 -0.0200496 -0.0759117 0.0208717 0 0 0.769429 0 0 
296 1 296 0.459676 0.820165 0 0 -0.219394 -0.0170946 -0.0758092 0.034484 0 0 0.544218 0 0 
297 1 297 0.459669 0.860179 0 0 -0.221081 -0.00564731 -0.0726856 0.0323918 0 0 0.212757 0 0 
298 1 298 0.459664 0.900195 0 0 -0.227427 -0.00831363 -0.0755765 0.033304 0 0 -0.714346 0 0 
299 1 299 0.459655 0.940212 0 0 -0.237498 -0.00431379 -0.0775322 0.00893912 0 0 -1.21961 0 0 
300 1 300 0.459637 0.98023 0 0 -0.259647 0.000516409 -0.0830782 -0.00482493 0 0 -1.62225 0 0 
301 1 301 0.499999 0.0200002 0 0 0.00415944 0.00331382 0.0024008 0.000484647 0 0 -0.280106 0 0 
302 1 302 0.499999 0.06 0 0 -0.0181214 -0.0103759 -0.0091196 -0.00167212 0 0 -0.968925 0 0 
303 1 303 0.499998 0.100001 0 0 -0.0613312 -0.0197795 -0.0259841 -0.0130756 0 0 -1.03163 0 0 
304 1 304 0.499992 0.140004 0 0 -0.0999349 -0.0199549 -0.0384161 -0.016706 0 0 -1.62856 0 0 
305 1 305 0.499979 0.180009 0 0 -0.132683 -0.017176 -0.0480269 -0.0315002 0 0 -1.70466 0 0 
306 1 306 0.49996 0.220018 0 0 -0.158645 -0.0127063 -0.0549177 -0.0384354 0 0 -2.15076 0 0 
307 1 307 0.499936 0.26003 0 0 -0.177409 0.00496446 -0.0552663 -0.0440796 0 0 -2.21207 0 0 
308 1 308 0.499912 0.300045 0 0 -0.201665 -0.000811674 -0.0648961 -0.0389719 0 0 -2.3106 0 0 
309 1 309 0.499891 0.340061 0 0 -0.201538 0.0112912 -0.060973 -0.0331586 0 0 -2.70438 0 0 
310 1 310 0.499871 0.380078 0 0 -0.19901 0.00342632 -0.0626821 -0.0310999 0 0 -2.8631 0 0 
311 1 311 0.499851 0.420092 0 0 -0.184915 -0.00564727 -0.0610726 -0.0259741 0 0 -3.55378 0 0 
312 1 312 0.499829 0.460104 0 0 -0.163625 -0.0137286 -0.0568418 -0.0296917 0 0 -3.80427 0 0 
313 1 313 0.499803 0.500113 0 0 -0.14769 -0.0232322 -0.0547831 -0.0338846 0 0 -3.73603 0 0 
314 1 314 0.499773 0.54012 0 0 -0.144892 -0.0310597 -0.0563915 -0.0298284 0 0 -3.29722 0 0 
315 1 315 0.499739 0.580126 0 0 -0.148956 -0.0371682 -0.0596513 -0.0234739 0 0 -2.86181 0 0 
316 1 316 0.499704 0.620132 0 0 -0.121916 -0.00530532 -0.0407656 -0.0155904 0 0 -2.64821 0 0 
317 1 317 0.499675 0.660141 0 0 -0.102002 0.00401962 -0.0313923 0.00321681 0 0 -3.23075 0 0 
318 1 318 0.499653 0.70015 0 0 -0.083788 0.0341651 -0.015893 0.00669142 0 0 -2.92554 0 0 
319 1 319 0.499639 0.740162 0 0 -0.0989059 0.0222553 -0.0245534 0.0253342 0 0 -2.83038 0 0 
320 1 320 0.499631 0.780173 0 0 -0.119154 0.0230989 -0.0307777 0.0274558 0 0 -1.98569 0 0 
321 1 321 0.499626 0.820186 0 0 -0.150257 0.00777146 -0.0456596 0.0391675 0 0 -1.59716 0 0 
322 1 322 0.499624 0.8602 0 0 -0.179692 0.00512063 -0.0559543 0.0370025 0 0 -1.17564 0 0 
323 1 323 0.499621 0.900215 0 0 -0.20879 0.000784094 -0.0666765 0.0397381 0 0 -1.53233 0 0 