ITEM: TIMESTEP
0
ITEM: NUMBER OF ATOMS
7127
ITEM: BOX BOUNDS sm sm sm
0 4
0 2
0 0
ITEM: ATOMS id type tag x y z vx 
0 1 0 0 0 0 0 
1 1 1 0 0.04 0 0 
2 1 2 0 0.08 0 0 
3 1 3 0 0.12 0 0 
4 1 4 0 0.16 0 0 
5 1 5 0 0.2 0 0 
6 1 6 0 0.24 0 0 
7 1 7 0 0.28 0 0 
8 1 8 0 0.32 0 0 
9 1 9 0 0.36 0 0 
10 1 10 0 0.4 0 0 
11 1 11 0 0.44 0 0 
12 1 12 0 0.48 0 0 
13 1 13 0 0.52 0 0 
14 1 14 0 0.56 0 0 
15 1 15 0 0.6 0 0 
16 1 16 0 0.64 0 0 
17 1 17 0 0.68 0 0 
18 1 18 0 0.72 0 0 
19 1 19 0 0.76 0 0 
20 1 20 0 0.8 0 0 
21 1 21 0 0.84 0 0 
22 1 22 0 0.88 0 0 
23 1 23 0 0.92 0 0 
24 1 24 0 0.96 0 0 
25 1 25 0 1 0 0 
26 1 26 0.04 0 0 0 
27 1 27 0.0399999 0.039999 0 -0.281972 
28 1 28 0.0399992 0.079998 0 -0.513477 
29 1 29 0.0399997 0.119993 0 -0.575795 
30 1 30 0.0399983 0.159988 0 -0.500992 
31 1 31 0.0399965 0.199983 0 -0.350077 
32 1 32 0.0399916 0.239984 0 -0.0960626 
33 1 33 0.0399875 0.279984 0 0.0220927 
34 1 34 0.0399886 0.319988 0 0.109429 
35 1 35 0.0399856 0.359989 0 0.0591259 
36 1 36 0.039987 0.399988 0 0.0752222 
37 1 37 0.0399826 0.439988 0 0.350255 
38 1 38 0.0399792 0.479992 0 0.24819 
39 1 39 0.0399785 0.519996 0 0.54955 
40 1 40 0.0399689 0.560007 0 0.530211 
41 1 41 0.0399725 0.600016 0 0.32576 
42 1 42 0.0399693 0.640028 0 0.438384 
43 1 43 0.0399686 0.680037 0 -0.0420141 
44 1 44 0.0399752 0.720044 0 -0.0726735 
45 1 45 0.0399726 0.760047 0 0.213446 
46 1 46 0.0399695 0.800054 0 -0.115071 
47 1 47 0.03998 0.840049 0 0.340463 
48 1 48 0.0399647 0.880058 0 0.562892 
49 1 49 0.0399696 0.920056 0 0.301275 
50 1 50 0.0399608 0.960061 0 0.854758 
51 1 51 0.0399048 1.0001 0 1.11781 
52 1 52 0.08 0 0 0 
53 1 53 0.0799978 0.0399969 0 -0.279981 
54 1 54 0.0800005 0.0799952 0 -0.798625 
55 1 55 0.0800043 0.119989 0 -1.20937 
56 1 56 0.0799991 0.159984 0 -1.0547 
57 1 57 0.0799929 0.199978 0 -0.516348 
58 1 58 0.0799824 0.23998 0 0.0264405 
59 1 59 0.0799747 0.27998 0 0.0901349 
60 1 60 0.079976 0.319985 0 0.0233637 
61 1 61 0.0799717 0.359986 0 -0.145493 
62 1 62 0.0799734 0.399988 0 -0.195711 
63 1 63 0.079965 0.43999 0 0.282306 
64 1 64 0.0799555 0.479997 0 0.363564 
65 1 65 0.0799502 0.520005 0 0.971585 
66 1 66 0.0799328 0.56002 0 1.05884 
67 1 67 0.0799343 0.600037 0 0.770971 
68 1 68 0.0799295 0.640055 0 0.790262 
69 1 69 0.0799325 0.68007 0 0.0677428 
70 1 70 0.0799414 0.720083 0 -0.0494532 
71 1 71 0.0799403 0.76009 0 0.154383 
72 1 72 0.0799428 0.800098 0 0.256087 
73 1 73 0.0799449 0.840105 0 1.00652 
74 1 74 0.0799356 0.88011 0 1.13769 
75 1 75 0.0799353 0.920123 0 1.11148 
76 1 76 0.0799072 0.96014 0 1.74958 
77 1 77 0.0798556 1.00015 0 1.96365 
78 1 78 0.12 0 0 0 
79 1 79 0.119999 0.0399977 0 -0.231831 
80 1 80 0.120004 0.0799941 0 -0.989873 
81 1 81 0.120007 0.119988 0 -1.67128 
82 1 82 0.119999 0.159985 0 -1.39904 
83 1 83 0.119989 0.199982 0 -0.516534 
84 1 84 0.119973 0.239985 0 0.207112 
85 1 85 0.119963 0.279986 0 0.228327 
86 1 86 0.119961 0.319991 0 0.00865206 
87 1 87 0.119958 0.359993 0 -0.320532 
88 1 88 0.119956 0.399998 0 -0.499287 
89 1 89 0.119946 0.440003 0 -0.0140942 
90 1 90 0.11993 0.480013 0 0.371088 
91 1 91 0.119919 0.520025 0 1.16032 
92 1 92 0.119897 0.560042 0 1.37161 
93 1 93 0.119895 0.60006 0 1.17941 
94 1 94 0.119887 0.640084 0 0.925137 
95 1 95 0.119896 0.680101 0 0.065948 
96 1 96 0.119904 0.720119 0 0.011429 
97 1 97 0.119903 0.760134 0 0.0549977 
98 1 98 0.119913 0.800142 0 0.704152 
99 1 99 0.119907 0.840157 0 1.83107 
100 1 100 0.119901 0.880168 0 1.80019 
101 1 101 0.119896 0.920181 0 2.1745 
102 1 102 0.119864 0.9602 0 2.66327 
103 1 103 0.119822 1.00022 0 2.47742 
104 1 104 0.16 0 0 0 
105 1 105 0.160003 0.0399992 0 -0.364748 
106 1 106 0.160007 0.079994 0 -1.1064 
107 1 107 0.160008 0.119991 0 -1.74486 
108 1 108 0.159996 0.159991 0 -1.41969 
109 1 109 0.159983 0.199992 0 -0.424883 
110 1 110 0.159964 0.239996 0 0.33834 
111 1 111 0.159952 0.279999 0 0.39969 
112 1 112 0.159947 0.320004 0 0.0234589 
113 1 113 0.159945 0.36001 0 -0.52784 
114 1 114 0.159938 0.400016 0 -0.710116 
115 1 115 0.159925 0.440026 0 -0.278572 
116 1 116 0.159905 0.480038 0 0.300212 
117 1 117 0.159884 0.520053 0 1.10077 
118 1 118 0.15986 0.560074 0 1.35448 
119 1 119 0.15985 0.600092 0 1.31374 
120 1 120 0.15984 0.640117 0 0.827251 
121 1 121 0.15985 0.680137 0 -0.053485 
122 1 122 0.159859 0.720156 0 -0.106541 
123 1 123 0.159863 0.760176 0 -0.0162303 
124 1 124 0.159873 0.80019 0 0.988748 
125 1 125 0.159867 0.840207 0 2.19683 
126 1 126 0.159864 0.880223 0 2.40941 
127 1 127 0.159858 0.920238 0 3.18809 
128 1 128 0.159826 0.960256 0 3.20996 
129 1 129 0.159793 1.00027 0 2.52104 
130 1 130 0.2 0 0 0 
131 1 131 0.200006 0.0399988 0 -0.507907 
132 1 132 0.20001 0.0799957 0 -1.07046 
133 1 133 0.200006 0.119997 0 -1.53429 
134 1 134 0.199992 0.16 0 -1.25789 
135 1 135 0.199974 0.200006 0 -0.310812 
136 1 136 0.199955 0.24001 0 0.381365 
137 1 137 0.199941 0.280015 0 0.558023 
138 1 138 0.199934 0.32002 0 0.0897836 
139 1 139 0.19993 0.360028 0 -0.609814 
140 1 140 0.199919 0.400039 0 -0.803938 
141 1 141 0.199902 0.440052 0 -0.541616 
142 1 142 0.199879 0.480069 0 0.149041 
143 1 143 0.19985 0.520085 0 0.915212 
144 1 144 0.199826 0.560108 0 1.22374 
145 1 145 0.199811 0.600127 0 1.24172 
146 1 146 0.1998 0.64015 0 0.505041 
147 1 147 0.19981 0.680171 0 -0.249221 
148 1 148 0.199813 0.720195 0 -0.463207 
149 1 149 0.199823 0.760216 0 -0.392576 
150 1 150 0.199832 0.800236 0 0.947149 
151 1 151 0.199825 0.840256 0 2.07902 
152 1 152 0.199828 0.88027 0 2.71257 
153 1 153 0.19982 0.92029 0 3.84925 
154 1 154 0.199793 0.960306 0 3.49471 
155 1 155 0.199771 1.00032 0 2.5876 
156 1 156 0.24 0 0 0 
157 1 157 0.240008 0.0399995 0 -0.504135 
158 1 158 0.24001 0.0799991 0 -0.858865 
159 1 159 0.24 0.120004 0 -1.05651 
160 1 160 0.239983 0.160011 0 -0.860288 
161 1 161 0.239966 0.20002 0 -0.116411 
162 1 162 0.239948 0.240026 0 0.36237 
163 1 163 0.239934 0.280031 0 0.652293 
164 1 164 0.239921 0.320037 0 0.216229 
165 1 165 0.239914 0.360046 0 -0.535428 
166 1 166 0.239897 0.400063 0 -0.755556 
167 1 167 0.239877 0.440079 0 -0.727513 
168 1 168 0.239849 0.480101 0 0.0060327 
169 1 169 0.239814 0.520121 0 0.60833 
170 1 170 0.23979 0.560142 0 0.827691 
171 1 171 0.239768 0.600163 0 0.875726 
172 1 172 0.239755 0.640185 0 -0.0572932 
173 1 173 0.239762 0.680205 0 -0.692588 
174 1 174 0.239762 0.720231 0 -0.944805 
175 1 175 0.239775 0.760254 0 -0.957181 
176 1 176 0.239785 0.800276 0 0.311504 
177 1 177 0.239785 0.840296 0 1.48897 
178 1 178 0.239789 0.88031 0 2.63036 
179 1 179 0.23978 0.920328 0 3.83995 
180 1 180 0.239764 0.960343 0 3.46405 
181 1 181 0.239751 1.00035 0 2.75035 
182 1 182 0.28 0 0 0 
183 1 183 0.280011 0.0400009 0 -0.530943 
184 1 184 0.280008 0.0800029 0 -0.588511 
185 1 185 0.279992 0.120011 0 -0.294533 
186 1 186 0.279973 0.16002 0 -0.171546 
187 1 187 0.279958 0.200032 0 0.170718 
188 1 188 0.27994 0.24004 0 0.412661 
189 1 189 0.279928 0.280047 0 0.769337 
190 1 190 0.279909 0.320055 0 0.397037 
191 1 191 0.279895 0.360069 0 -0.429827 
192 1 192 0.279871 0.400088 0 -0.683826 
193 1 193 0.279846 0.440111 0 -0.860458 
194 1 194 0.279818 0.480133 0 -0.256626 
195 1 195 0.27978 0.520158 0 0.243932 
196 1 196 0.279756 0.560178 0 0.324647 
197 1 197 0.279735 0.600196 0 0.29456 
198 1 198 0.279721 0.640216 0 -0.606212 
199 1 199 0.279721 0.680235 0 -1.26688 
200 1 200 0.27972 0.720261 0 -1.59231 
201 1 201 0.279732 0.760283 0 -1.51225 
202 1 202 0.27974 0.800307 0 -0.645982 
203 1 203 0.279749 0.840324 0 0.521004 
204 1 204 0.279752 0.880341 0 2.23132 
205 1 205 0.279744 0.920357 0 3.42521 
206 1 206 0.279739 0.960369 0 3.31335 
207 1 207 0.279731 1.00038 0 3.02194 
208 1 208 0.32 0 0 0 
209 1 209 0.320008 0.0400025 0 -0.438123 
210 1 210 0.32 0.0800089 0 -0.134557 
211 1 211 0.319983 0.120019 0 0.587294 
212 1 212 0.319963 0.160032 0 0.615981 
213 1 213 0.319948 0.200045 0 0.552987 
214 1 214 0.319931 0.240057 0 0.616881 
215 1 215 0.319919 0.280068 0 0.840119 
216 1 216 0.319895 0.32008 0 0.489209 
217 1 217 0.31987 0.360099 0 -0.24031 
218 1 218 0.319841 0.400121 0 -0.576838 
219 1 219 0.31981 0.440149 0 -0.881709 
220 1 220 0.319779 0.480174 0 -0.5641 
221 1 221 0.319744 0.520196 0 -0.223314 
222 1 222 0.319719 0.560216 0 -0.133357 
223 1 223 0.319695 0.60023 0 -0.352888 
224 1 224 0.319681 0.640245 0 -1.07158 
225 1 225 0.319671 0.680261 0 -1.67212 
226 1 226 0.319672 0.720282 0 -2.21801 
227 1 227 0.319684 0.760302 0 -2.11574 
228 1 228 0.319694 0.800325 0 -1.65315 
229 1 229 0.319711 0.840343 0 -0.531189 
230 1 230 0.319715 0.880359 0 1.47587 
231 1 231 0.319712 0.920372 0 2.7264 
232 1 232 0.319713 0.960383 0 3.19639 
233 1 233 0.319704 1.0004 0 3.38506 
234 1 234 0.36 0 0 0 
235 1 235 0.360005 0.0400035 0 -0.19318 
236 1 236 0.359992 0.0800141 0 0.457927 
237 1 237 0.359971 0.120027 0 1.49095 
238 1 238 0.35995 0.160043 0 1.53702 
239 1 239 0.359935 0.200059 0 1.11168 
240 1 240 0.35992 0.240075 0 0.844154 
241 1 241 0.359905 0.280091 0 0.797604 
242 1 242 0.359875 0.320107 0 0.454396 
243 1 243 0.359843 0.360131 0 -0.0886265 
244 1 244 0.359806 0.400156 0 -0.590034 
245 1 245 0.359773 0.440184 0 -0.972133 
246 1 246 0.35974 0.480211 0 -0.77917 
247 1 247 0.359709 0.520231 0 -0.643596 
248 1 248 0.359688 0.560245 0 -0.500687 
249 1 249 0.359666 0.600258 0 -0.786933 
250 1 250 0.359655 0.640266 0 -1.37341 
251 1 251 0.359639 0.68028 0 -1.87246 
252 1 252 0.359636 0.720295 0 -2.52858 
253 1 253 0.359645 0.760313 0 -2.59386 
254 1 254 0.359654 0.800335 0 -2.52252 
255 1 255 0.359675 0.840352 0 -1.44394 
256 1 256 0.35968 0.88037 0 0.573008 
257 1 257 0.359685 0.920382 0 1.94529 
258 1 258 0.359689 0.960393 0 2.92254 
259 1 259 0.359677 1.00041 0 3.35219 
260 1 260 0.4 0 0 0 
261 1 261 0.399996 0.0400074 0 0.14713 
262 1 262 0.399979 0.0800215 0 1.06203 
263 1 263 0.399955 0.120037 0 2.28399 
264 1 264 0.399935 0.160054 0 2.34887 
265 1 265 0.399918 0.200073 0 1.63003 
266 1 266 0.399903 0.24009 0 1.0378 
267 1 267 0.399885 0.280111 0 0.78016 
268 1 268 0.39985 0.320132 0 0.341213 
269 1 269 0.399811 0.360157 0 -0.118942 
270 1 270 0.399766 0.400184 0 -0.616218 
271 1 271 0.399732 0.440212 0 -1.0434 
272 1 272 0.399699 0.480237 0 -0.907748 
273 1 273 0.399674 0.520256 0 -0.832176 
274 1 274 0.399655 0.560267 0 -0.658664 
275 1 275 0.399633 0.600275 0 -0.870704 
276 1 276 0.399618 0.640281 0 -1.33829 
277 1 277 0.399598 0.680291 0 -1.88375 
278 1 278 0.399596 0.720303 0 -2.58087 
279 1 279 0.399601 0.760318 0 -2.87873 
280 1 280 0.399614 0.800338 0 -3.14103 
281 1 281 0.399636 0.840356 0 -2.1726 
282 1 282 0.399646 0.880376 0 -0.321701 
283 1 283 0.399658 0.920389 0 1.25657 
284 1 284 0.39966 0.960404 0 2.52551 
285 1 285 0.399649 1.00042 0 2.94809 
286 1 286 0.44 0 0 0 
287 1 287 0.439986 0.0400105 0 0.567839 
288 1 288 0.439964 0.0800271 0 1.62253 
289 1 289 0.439937 0.120045 0 2.81603 
290 1 290 0.439917 0.160063 0 2.83738 
291 1 291 0.439897 0.200082 0 2.03911 
292 1 292 0.439881 0.240102 0 1.20252 
293 1 293 0.439861 0.280125 0 0.608667 
294 1 294 0.43982 0.320149 0 0.0810022 
295 1 295 0.439776 0.360173 0 -0.212673 
296 1 296 0.439729 0.400199 0 -0.516275 
297 1 297 0.439692 0.440224 0 -0.874385 
298 1 298 0.439662 0.480245 0 -0.843895 
299 1 299 0.439643 0.520262 0 -0.798328 
300 1 300 0.439627 0.560272 0 -0.575672 
301 1 301 0.439611 0.60028 0 -0.674839 
302 1 302 0.439598 0.640286 0 -0.981296 
303 1 303 0.439576 0.680294 0 -1.56172 
304 1 304 0.43957 0.720303 0 -2.35472 
305 1 305 0.439569 0.760318 0 -2.93414 
306 1 306 0.439579 0.800335 0 -3.38422 
307 1 307 0.439599 0.840356 0 -2.60752 
308 1 308 0.439614 0.880378 0 -0.983216 
309 1 309 0.439631 0.920394 0 0.714842 
310 1 310 0.439635 0.960412 0 1.8803 
311 1 311 0.43963 1.00042 0 2.11841 
312 1 312 0.48 0 0 0 
313 1 313 0.479973 0.040012 0 0.975523 
314 1 314 0.479945 0.0800308 0 2.00253 
315 1 315 0.479919 0.120049 0 2.9683 
316 1 316 0.479898 0.160067 0 3.02149 
317 1 317 0.479875 0.200085 0 2.26276 
318 1 318 0.479855 0.240106 0 1.21214 
319 1 319 0.47983 0.280129 0 0.324521 
320 1 320 0.479788 0.320153 0 -0.154057 
321 1 321 0.479741 0.360178 0 -0.246007 
322 1 322 0.479692 0.4002 0 -0.437857 
323 1 323 0.479654 0.440221 0 -0.60396 
324 1 324 0.479625 0.48024 0 -0.528023 
325 1 325 0.479609 0.520254 0 -0.455775 
326 1 326 0.479594 0.560264 0 -0.165638 
327 1 327 0.479577 0.600275 0 -0.203252 
328 1 328 0.479561 0.640282 0 -0.400778 
329 1 329 0.47954 0.680291 0 -0.957956 
330 1 330 0.479534 0.720298 0 -1.86438 
331 1 331 0.479531 0.760311 0 -2.69014 
332 1 332 0.479541 0.800328 0 -3.12742 
333 1 333 0.479557 0.84035 0 -2.65158 
334 1 334 0.479581 0.880374 0 -1.36327 
335 1 335 0.4796 0.920394 0 0.278891 
336 1 336 0.47961 0.960413 0 1.07476 
337 1 337 0.479619 1.00042 0 1.11348 
338 1 338 0.52 0 0 0 
339 1 339 0.519961 0.0400123 0 1.33628 
340 1 340 0.519929 0.0800304 0 2.16562 
341 1 341 0.519901 0.120048 0 2.7132 
342 1 342 0.519878 0.160064 0 2.83036 
343 1 343 0.519852 0.200081 0 2.24638 
344 1 344 0.519827 0.2401 0 1.15144 
345 1 345 0.519797 0.280123 0 0.124687 
346 1 346 0.519754 0.320146 0 -0.378626 
347 1 347 0.519706 0.360167 0 -0.296028 
348 1 348 0.519656 0.400186 0 -0.300795 
349 1 349 0.519619 0.440202 0 -0.285872 
350 1 350 0.519591 0.480218 0 -0.0876707 
351 1 351 0.519579 0.520231 0 0.0920639 
352 1 352 0.519567 0.560242 0 0.453575 
353 1 353 0.519553 0.600254 0 0.458051 
354 1 354 0.519541 0.640265 0 0.313494 
355 1 355 0.519522 0.680276 0 -0.175 
356 1 356 0.519513 0.720286 0 -1.15493 
357 1 357 0.519506 0.760299 0 -2.16557 
358 1 358 0.519511 0.800314 0 -2.50787 
359 1 359 0.519519 0.840336 0 -2.38694 
360 1 360 0.519548 0.880359 0 -1.52159 
361 1 361 0.51957 0.920381 0 -0.178874 
362 1 362 0.519592 0.960398 0 0.209011 
363 1 363 0.51962 1.0004 0 0.210863 
364 1 364 0.56 0 0 0 
365 1 365 0.559949 0.0400111 0 1.57664 
366 1 366 0.559913 0.0800267 0 2.14481 
367 1 367 0.559885 0.120043 0 2.22454 
368 1 368 0.559861 0.160056 0 2.29235 
369 1 369 0.559829 0.200071 0 1.97537 
370 1 370 0.559799 0.240088 0 0.989653 
371 1 371 0.559764 0.280108 0 -0.0947223 
372 1 372 0.55972 0.320129 0 -0.538615 
373 1 373 0.559673 0.360147 0 -0.239596 
374 1 374 0.559624 0.400162 0 0.0437309 
375 1 375 0.559586 0.440175 0 0.246686 
376 1 376 0.559558 0.480186 0 0.482084 
377 1 377 0.559545 0.5202 0 0.631304 
378 1 378 0.559531 0.560214 0 0.950962 
379 1 379 0.559513 0.600229 0 1.05434 
380 1 380 0.559499 0.640244 0 0.965866 
381 1 381 0.559485 0.680258 0 0.53207 
382 1 382 0.559477 0.720268 0 -0.417004 
383 1 383 0.559472 0.760279 0 -1.4544 
384 1 384 0.559476 0.800294 0 -1.69598 
385 1 385 0.559481 0.840312 0 -1.93705 
386 1 386 0.559516 0.880332 0 -1.539 
387 1 387 0.55954 0.920351 0 -0.701206 
388 1 388 0.559578 0.960363 0 -0.593262 
389 1 389 0.559623 1.00037 0 -0.412497 
390 1 390 0.6 0 0 0 
391 1 391 0.599941 0.0400082 0 1.62921 
392 1 392 0.5999 0.0800203 0 1.91536 
393 1 393 0.599871 0.120032 0 1.57545 
394 1 394 0.599844 0.160044 0 1.5953 
395 1 395 0.59981 0.200055 0 1.58263 
396 1 396 0.599774 0.240069 0 0.839678 
397 1 397 0.599731 0.280086 0 -0.145005 
398 1 398 0.599687 0.320104 0 -0.423976 
399 1 399 0.599641 0.36012 0 -0.0250779 
400 1 400 0.599595 0.400131 0 0.365476 
401 1 401 0.599557 0.440142 0 0.747899 
402 1 402 0.59953 0.480151 0 1.02818 
403 1 403 0.599514 0.520164 0 1.11335 
404 1 404 0.599499 0.560179 0 1.30464 
405 1 405 0.599486 0.600197 0 1.39746 
406 1 406 0.599476 0.640215 0 1.35684 
407 1 407 0.599466 0.68023 0 0.972976 
408 1 408 0.599458 0.720242 0 0.0924596 
409 1 409 0.599451 0.760252 0 -0.841966 
410 1 410 0.599451 0.800264 0 -0.98417 
411 1 411 0.599452 0.840277 0 -1.50092 
412 1 412 0.599489 0.88029 0 -1.57825 
413 1 413 0.599517 0.920304 0 -1.27368 
414 1 414 0.599569 0.96031 0 -1.1308 
415 1 415 0.599626 1.00031 0 -0.582404 
416 1 416 0.64 0 0 0 
417 1 417 0.639934 0.0400056 0 1.45304 
418 1 418 0.639891 0.0800123 0 1.50817 
419 1 419 0.639861 0.12002 0 0.874771 
420 1 420 0.63983 0.160028 0 0.873617 
421 1 421 0.63979 0.200038 0 1.15469 
422 1 422 0.639747 0.240049 0 0.751461 
423 1 423 0.6397 0.280064 0 0.0599971 
424 1 424 0.639655 0.32008 0 -0.0334032 
425 1 425 0.639612 0.360094 0 0.397382 
426 1 426 0.639568 0.400104 0 0.871985 
427 1 427 0.63953 0.440113 0 1.27377 
428 1 428 0.639502 0.480121 0 1.38811 
429 1 429 0.639481 0.520134 0 1.32032 
430 1 430 0.63946 0.56015 0 1.34353 
431 1 431 0.639442 0.600168 0 1.3183 
432 1 432 0.63943 0.640186 0 1.25968 
433 1 433 0.639425 0.6802 0 0.97507 
434 1 434 0.639422 0.720212 0 0.303736 
435 1 435 0.639419 0.760219 0 -0.444686 
436 1 436 0.639423 0.800226 0 -0.59336 
437 1 437 0.639429 0.840231 0 -1.26786 
438 1 438 0.639467 0.880236 0 -1.73255 
439 1 439 0.639499 0.920242 0 -1.86533 
440 1 440 0.639559 0.960244 0 -1.45636 
441 1 441 0.639617 1.00025 0 -0.517772 
442 1 442 0.68 0 0 0 
443 1 443 0.679933 0.0400016 0 1.1018 
444 1 444 0.679887 0.0800017 0 0.983412 
445 1 445 0.679851 0.120006 0 0.254059 
446 1 446 0.679814 0.160011 0 0.207735 
447 1 447 0.679773 0.200019 0 0.725526 
448 1 448 0.679724 0.240029 0 0.761502 
449 1 449 0.679671 0.280041 0 0.490847 
450 1 450 0.679625 0.320056 0 0.650195 
451 1 451 0.679582 0.360069 0 1.03325 
452 1 452 0.679543 0.400079 0 1.45196 
453 1 453 0.679506 0.440088 0 1.74029 
454 1 454 0.679477 0.480095 0 1.61908 
455 1 455 0.679452 0.520107 0 1.34515 
456 1 456 0.679431 0.560121 0 1.10186 
457 1 457 0.679416 0.600138 0 0.948513 
458 1 458 0.679408 0.640153 0 0.89486 
459 1 459 0.679408 0.680165 0 0.654857 
460 1 460 0.679406 0.720175 0 0.242692 
461 1 461 0.679404 0.76018 0 -0.227079 
462 1 462 0.679409 0.800183 0 -0.400729 
463 1 463 0.679419 0.84018 0 -1.05853 
464 1 464 0.679453 0.880178 0 -1.81816 
465 1 465 0.679489 0.920177 0 -2.31212 
466 1 466 0.679549 0.960177 0 -1.57199 
467 1 467 0.679599 1.00018 0 -0.351867 
468 1 468 0.72 0 0 0 
469 1 469 0.719933 0.0399975 0 0.542153 
470 1 470 0.719883 0.0799934 0 0.341134 
471 1 471 0.719843 0.119993 0 -0.192852 
472 1 472 0.7198 0.159996 0 -0.17354 
473 1 473 0.719752 0.200003 0 0.452635 
474 1 474 0.719698 0.240012 0 0.922874 
475 1 475 0.71964 0.280024 0 1.12621 
476 1 476 0.719594 0.320037 0 1.45432 
477 1 477 0.719552 0.36005 0 1.69311 
478 1 478 0.719518 0.400061 0 1.96631 
479 1 479 0.719483 0.440069 0 2.08022 
480 1 480 0.719452 0.480076 0 1.70431 
481 1 481 0.719423 0.520087 0 1.20574 
482 1 482 0.719395 0.560098 0 0.707857 
483 1 483 0.719376 0.600111 0 0.442548 
484 1 484 0.719366 0.640123 0 0.431821 
485 1 485 0.719368 0.680131 0 0.263816 
486 1 486 0.719374 0.720138 0 0.0969524 
487 1 487 0.719379 0.76014 0 -0.150018 
488 1 488 0.719393 0.800139 0 -0.424985 
489 1 489 0.719411 0.840131 0 -0.999214 
490 1 490 0.719442 0.880125 0 -1.97624 
491 1 491 0.719481 0.920119 0 -2.68275 
492 1 492 0.719532 0.960119 0 -1.60099 
493 1 493 0.719569 1.00013 0 -0.249024 
494 1 494 0.76 0 0 0 
495 1 495 0.759938 0.0399925 0 -0.0507364 
496 1 496 0.759882 0.079984 0 -0.214319 
497 1 497 0.759833 0.11998 0 -0.429184 
498 1 498 0.759781 0.159982 0 -0.292662 
499 1 499 0.75973 0.199989 0 0.346673 
500 1 500 0.759672 0.239997 0 1.1158 
501 1 501 0.759612 0.280008 0 1.82694 
502 1 502 0.759565 0.32002 0 2.35474 
503 1 503 0.759523 0.360032 0 2.37601 
504 1 504 0.759493 0.400043 0 2.41329 
505 1 505 0.75946 0.440051 0 2.26306 
506 1 506 0.759431 0.480057 0 1.59548 
507 1 507 0.7594 0.520065 0 0.943858 
508 1 508 0.759374 0.560073 0 0.337208 
509 1 509 0.759359 0.600081 0 -0.0127155 
510 1 510 0.759356 0.640088 0 -0.0425661 
511 1 511 0.759359 0.680094 0 -0.118376 
512 1 512 0.759366 0.7201 0 -0.0105518 
513 1 513 0.759372 0.760101 0 -0.0246416 
514 1 514 0.759389 0.800098 0 -0.389698 
515 1 515 0.759412 0.840089 0 -0.892631 
516 1 516 0.759437 0.880082 0 -2.01631 
517 1 517 0.759475 0.920074 0 -2.84624 
518 1 518 0.759513 0.960077 0 -1.69612 
519 1 519 0.759534 1.00009 0 -0.492749 
520 1 520 0.8 0 0 0 
521 1 521 0.799938 0.0399883 0 -0.582794 
522 1 522 0.799879 0.0799763 0 -0.628952 
523 1 523 0.799822 0.11997 0 -0.466722 
524 1 524 0.799762 0.159971 0 -0.240066 
525 1 525 0.799706 0.199977 0 0.407708 
526 1 526 0.799643 0.239986 0 1.45401 
527 1 527 0.799582 0.279995 0 2.49524 
528 1 528 0.799535 0.320005 0 3.09748 
529 1 529 0.799493 0.360015 0 2.91386 
530 1 530 0.799468 0.400025 0 2.69439 
531 1 531 0.799438 0.440032 0 2.29451 
532 1 532 0.799409 0.480038 0 1.41566 
533 1 533 0.799376 0.520045 0 0.640384 
534 1 534 0.799349 0.56005 0 -0.054345 
535 1 535 0.79933 0.600055 0 -0.435018 
536 1 536 0.799322 0.64006 0 -0.420573 
537 1 537 0.799325 0.680064 0 -0.405653 
538 1 538 0.799338 0.720067 0 -0.159055 
539 1 539 0.799351 0.760068 0 -0.0531574 
540 1 540 0.799376 0.800065 0 -0.519922 
541 1 541 0.799405 0.840057 0 -0.964184 
542 1 542 0.799427 0.880051 0 -2.07488 
543 1 543 0.799461 0.920046 0 -2.90789 
544 1 544 0.799486 0.960053 0 -1.92319 
545 1 545 0.799493 1.00006 0 -1.04901 
546 1 546 0.84 0 0 0 
547 1 547 0.839942 0.0399837 0 -1.03995 
548 1 548 0.839876 0.0799693 0 -0.934172 
549 1 549 0.839809 0.119961 0 -0.317372 
550 1 550 0.839741 0.15996 0 0.0509479 
551 1 551 0.83968 0.199964 0 0.583309 
552 1 552 0.839615 0.239971 0 1.76326 
553 1 553 0.839554 0.279979 0 3.02882 
554 1 554 0.839507 0.319986 0 3.65736 
555 1 555 0.839467 0.359994 0 3.37111 
556 1 556 0.839442 0.400002 0 2.91286 
557 1 557 0.839415 0.440009 0 2.21024 
558 1 558 0.839391 0.480016 0 1.16599 
559 1 559 0.83936 0.520021 0 0.301563 
560 1 560 0.839338 0.560025 0 -0.441276 
561 1 561 0.839326 0.600028 0 -0.820588 
562 1 562 0.839323 0.64003 0 -0.811094 
563 1 563 0.839325 0.680034 0 -0.729812 
564 1 564 0.839334 0.720038 0 -0.363426 
565 1 565 0.839347 0.760041 0 -0.159316 
566 1 566 0.839372 0.80004 0 -0.704061 
567 1 567 0.839401 0.840036 0 -1.13075 
568 1 568 0.839417 0.880033 0 -2.12844 
569 1 569 0.839444 0.920032 0 -2.94132 
570 1 570 0.839456 0.960043 0 -2.36993 
571 1 571 0.839454 1.00006 0 -1.94318 
572 1 572 0.88 0 0 0 
573 1 573 0.879938 0.0399797 0 -1.26644 
574 1 574 0.879867 0.0799634 0 -1.05955 
575 1 575 0.879794 0.119952 0 -0.196485 
576 1 576 0.87972 0.159949 0 0.287619 
577 1 577 0.879652 0.19995 0 0.752412 
578 1 578 0.879588 0.239954 0 1.97026 
579 1 579 0.879529 0.279959 0 3.36673 
580 1 580 0.879481 0.319964 0 4.01607 
581 1 581 0.87944 0.35997 0 3.65086 
582 1 582 0.879417 0.399977 0 2.99689 
583 1 583 0.879392 0.439985 0 2.0735 
584 1 584 0.87937 0.479995 0 0.931206 
585 1 585 0.87934 0.520001 0 -0.0106661 
586 1 586 0.879319 0.560006 0 -0.795242 
587 1 587 0.879303 0.600009 0 -1.18733 
588 1 588 0.879295 0.64001 0 -1.22697 
589 1 589 0.879294 0.680015 0 -1.08453 
590 1 590 0.879305 0.720018 0 -0.677495 
591 1 591 0.879322 0.760022 0 -0.484154 
592 1 592 0.879349 0.800023 0 -1.06859 
593 1 593 0.879381 0.840023 0 -1.47676 
594 1 594 0.879396 0.880026 0 -2.26196 
595 1 595 0.879415 0.92003 0 -2.97349 
596 1 596 0.87942 0.960045 0 -2.88051 
597 1 597 0.879415 1.00006 0 -2.89749 
598 1 598 0.92 0 0 0 
599 1 599 0.919936 0.0399748 0 -1.37184 
600 1 600 0.91986 0.0799556 0 -1.17389 
601 1 601 0.919779 0.119941 0 -0.24229 
602 1 602 0.9197 0.159933 0 0.364753 
603 1 603 0.919629 0.19993 0 0.855223 
604 1 604 0.919563 0.239931 0 2.04057 
605 1 605 0.919505 0.279933 0 3.3872 
606 1 606 0.919458 0.319935 0 4.04092 
607 1 607 0.919417 0.35994 0 3.76885 
608 1 608 0.919392 0.399947 0 3.05762 
609 1 609 0.919367 0.439957 0 1.96858 
610 1 610 0.919348 0.479969 0 0.752987 
611 1 611 0.919325 0.519977 0 -0.231934 
612 1 612 0.919312 0.559984 0 -0.999316 
613 1 613 0.919304 0.599988 0 -1.35322 
614 1 614 0.9193 0.63999 0 -1.46061 
615 1 615 0.919296 0.679996 0 -1.36403 
616 1 616 0.9193 0.72 0 -1.04203 
617 1 617 0.919314 0.760007 0 -0.911469 
618 1 618 0.919336 0.800011 0 -1.51688 
619 1 619 0.919362 0.840016 0 -1.94482 
620 1 620 0.919372 0.880025 0 -2.46935 
621 1 621 0.919383 0.920035 0 -3.06285 
622 1 622 0.919382 0.960054 0 -3.45753 
623 1 623 0.919377 1.00007 0 -3.84727 
624 1 624 0.96 0 0 0 
625 1 625 0.959927 0.0399715 0 -1.29463 
626 1 626 0.959848 0.0799497 0 -1.19912 
627 1 627 0.959766 0.119931 0 -0.385404 
628 1 628 0.959683 0.159918 0 0.270937 
629 1 629 0.959607 0.199909 0 0.765302 
630 1 630 0.959542 0.239906 0 1.8537 
631 1 631 0.959486 0.279905 0 3.06321 
632 1 632 0.959437 0.319906 0 3.71749 
633 1 633 0.959394 0.35991 0 3.65215 
634 1 634 0.959366 0.399918 0 3.01264 
635 1 635 0.95934 0.439931 0 1.89606 
636 1 636 0.959322 0.479945 0 0.757896 
637 1 637 0.959302 0.519957 0 -0.182102 
638 1 638 0.95929 0.559966 0 -0.984372 
639 1 639 0.959277 0.599971 0 -1.41304 
640 1 640 0.959267 0.639975 0 -1.64626 
641 1 641 0.959263 0.679982 0 -1.63092 
642 1 642 0.959269 0.719987 0 -1.41142 
643 1 643 0.959284 0.759993 0 -1.35466 
644 1 644 0.959303 0.800001 0 -1.97192 
645 1 645 0.959327 0.840011 0 -2.42667 
646 1 646 0.959336 0.880026 0 -2.72498 
647 1 647 0.959342 0.92004 0 -3.24062 
648 1 648 0.959341 0.960061 0 -3.9352 
649 1 649 0.95934 1.00008 0 -4.47855 
650 1 650 1 0 0 0 
651 1 651 0.999922 0.0399676 0 -1.05507 
652 1 652 0.99984 0.0799422 0 -1.16736 
653 1 653 0.999754 0.11992 0 -0.642086 
654 1 654 0.999671 0.159901 0 0.0488985 
655 1 655 0.999593 0.199888 0 0.63072 
656 1 656 0.999527 0.239881 0 1.5963 
657 1 657 0.99947 0.279876 0 2.55171 
658 1 658 0.999421 0.319876 0 3.16303 
659 1 659 0.999374 0.35988 0 3.32415 
660 1 660 0.999341 0.399888 0 2.84879 
661 1 661 0.999311 0.439901 0 1.85936 
662 1 662 0.999295 0.479917 0 0.856571 
663 1 663 0.999281 0.51993 0 -0.0041412 
664 1 664 0.999278 0.55994 0 -0.762672 
665 1 665 0.999274 0.599948 0 -1.22817 
666 1 666 0.99927 0.639954 0 -1.60943 
667 1 667 0.999263 0.679961 0 -1.80606 
668 1 668 0.999262 0.719969 0 -1.85437 
669 1 669 0.999272 0.759978 0 -1.94237 
670 1 670 0.999282 0.79999 0 -2.52185 
671 1 671 0.999297 0.840004 0 -2.952 
672 1 672 0.999301 0.880024 0 -3.0295 
673 1 673 0.999301 0.920043 0 -3.43529 
674 1 674 0.999299 0.960065 0 -4.23972 
675 1 675 0.999303 1.00008 0 -4.78214 
676 1 676 1.04 0 0 0 
677 1 677 1.03991 0.0399669 0 -0.722465 
678 1 678 1.03983 0.0799394 0 -1.04621 
679 1 679 1.03975 0.119914 0 -0.840259 
680 1 680 1.03967 0.159892 0 -0.106738 
681 1 681 1.03958 0.199874 0 0.583893 
682 1 682 1.03951 0.239862 0 1.36997 
683 1 683 1.03946 0.279856 0 1.99708 
684 1 684 1.0394 0.319855 0 2.51921 
685 1 685 1.03935 0.359858 0 2.83416 
686 1 686 1.03932 0.399866 0 2.51829 
687 1 687 1.03928 0.439879 0 1.73902 
688 1 688 1.03927 0.479894 0 0.907595 
689 1 689 1.03925 0.519907 0 0.160644 
690 1 690 1.03925 0.559917 0 -0.539443 
691 1 691 1.03924 0.599925 0 -1.11253 
692 1 692 1.03923 0.639933 0 -1.66722 
693 1 693 1.03922 0.67994 0 -2.06014 
694 1 694 1.03923 0.719948 0 -2.36748 
695 1 695 1.03924 0.759957 0 -2.55974 
696 1 696 1.03924 0.799972 0 -3.0359 
697 1 697 1.03925 0.839991 0 -3.424 
698 1 698 1.03926 0.880015 0 -3.30247 
699 1 699 1.03925 0.92004 0 -3.56454 
700 1 700 1.03926 0.960064 0 -4.45109 
701 1 701 1.03926 1.00008 0 -5.00284 
702 1 702 1.08 0 0 0 
703 1 703 1.07991 0.0399666 0 -0.34203 
704 1 704 1.07983 0.0799378 0 -0.797067 
705 1 705 1.07974 0.119911 0 -0.873084 
706 1 706 1.07966 0.159886 0 -0.108718 
707 1 707 1.07958 0.199866 0 0.705769 
708 1 708 1.07951 0.23985 0 1.2974 
709 1 709 1.07945 0.279841 0 1.54205 
710 1 710 1.07939 0.319838 0 1.90627 
711 1 711 1.07934 0.35984 0 2.30265 
712 1 712 1.0793 0.399847 0 2.1165 
713 1 713 1.07926 0.439857 0 1.54221 
714 1 714 1.07924 0.479868 0 0.871171 
715 1 715 1.07923 0.51988 0 0.242406 
716 1 716 1.07923 0.559888 0 -0.403671 
717 1 717 1.07923 0.599896 0 -1.10061 
718 1 718 1.07923 0.639905 0 -1.81064 
719 1 719 1.07922 0.679911 0 -2.39686 
720 1 720 1.07922 0.719922 0 -2.9605 
721 1 721 1.07922 0.759933 0 -3.19691 
722 1 722 1.07922 0.799951 0 -3.46726 
723 1 723 1.07922 0.839974 0 -3.76677 
724 1 724 1.07921 0.880001 0 -3.50131 
725 1 725 1.07921 0.920029 0 -3.59255 
726 1 726 1.07921 0.960057 0 -4.44968 
727 1 727 1.07922 1.00008 0 -4.96844 
728 1 728 1.12 0 0 0 
729 1 729 1.1199 0.0399692 0 -0.0429064 
730 1 730 1.11982 0.0799414 0 -0.55581 
731 1 731 1.11974 0.119915 0 -0.832421 
732 1 732 1.11966 0.159889 0 -0.0456056 
733 1 733 1.11958 0.199866 0 0.93093 
734 1 734 1.11951 0.239847 0 1.4423 
735 1 735 1.11944 0.279836 0 1.39699 
736 1 736 1.11938 0.319831 0 1.52617 
737 1 737 1.11932 0.359831 0 1.79048 
738 1 738 1.11928 0.399836 0 1.5663 
739 1 739 1.11924 0.439842 0 1.11445 
740 1 740 1.11922 0.47985 0 0.560615 
741 1 741 1.11921 0.519858 0 0.0226856 
742 1 742 1.1192 0.559865 0 -0.515027 
743 1 743 1.11919 0.599872 0 -1.21491 
744 1 744 1.11918 0.639881 0 -1.99315 
745 1 745 1.11918 0.679885 0 -2.67969 
746 1 746 1.11917 0.719896 0 -3.38606 
747 1 747 1.11918 0.759907 0 -3.64361 
748 1 748 1.11917 0.799927 0 -3.7123 
749 1 749 1.11916 0.839952 0 -3.87868 
750 1 750 1.11916 0.879982 0 -3.49737 
751 1 751 1.11916 0.920013 0 -3.47381 
752 1 752 1.11916 0.960043 0 -4.26595 
753 1 753 1.11918 1.00007 0 -4.71107 
754 1 754 1.16 0 0 0 
755 1 755 1.15991 0.039972 0 0.0281273 
756 1 756 1.15982 0.0799451 0 -0.486099 
757 1 757 1.15974 0.11992 0 -0.785986 
758 1 758 1.15966 0.159894 0 0.0529847 
759 1 759 1.15958 0.19987 0 1.1404 
760 1 760 1.15951 0.239847 0 1.61844 
761 1 761 1.15943 0.279832 0 1.41293 
762 1 762 1.15937 0.319824 0 1.30393 
763 1 763 1.15931 0.359822 0 1.34052 
764 1 764 1.15926 0.399823 0 1.03435 
765 1 765 1.15922 0.439826 0 0.669758 
766 1 766 1.1592 0.479828 0 0.218449 
767 1 767 1.15919 0.519833 0 -0.258764 
768 1 768 1.15919 0.559839 0 -0.692078 
769 1 769 1.15919 0.599844 0 -1.34377 
770 1 770 1.15918 0.639852 0 -2.14861 
771 1 771 1.15917 0.679857 0 -2.82868 
772 1 772 1.15916 0.719869 0 -3.5596 
773 1 773 1.15915 0.759882 0 -3.8405 
774 1 774 1.15914 0.799904 0 -3.74054 
775 1 775 1.15912 0.83993 0 -3.76867 
776 1 776 1.15911 0.879961 0 -3.31284 
777 1 777 1.15911 0.919993 0 -3.25517 
778 1 778 1.15911 0.960022 0 -4.06393 
779 1 779 1.15913 1.00005 0 -4.48153 
780 1 780 1.2 0 0 0 
781 1 781 1.1999 0.0399772 0 -0.0460802 
782 1 782 1.19982 0.0799523 0 -0.526844 