ITEM: TIMESTEP
0
ITEM: NUMBER OF ATOMS
7127
ITEM: BOX BOUNDS sm sm sm
0 4
0 2
0 0
ITEM: ATOMS id type tag x y z vx 
0 1 0 0 0 0 0 
1 1 1 0 0.04 0 0 
2 1 2 0 0.08 0 0 
3 1 3 0 0.12 0 0 
4 1 4 0 0.16 0 0 
5 1 5 0 0.2 0 0 
6 1 6 0 0.24 0 0 
7 1 7 0 0.28 0 0 
8 1 8 0 0.32 0 0 
9 1 9 0 0.36 0 0 
10 1 10 0 0.4 0 0 
11 1 11 0 0.44 0 0 
12 1 12 0 0.48 0 0 
13 1 13 0 0.52 0 0 
14 1 14 0 0.56 0 0 
15 1 15 0 0.6 0 0 
16 1 16 0 0.64 0 0 
17 1 17 0 0.68 0 0 
18 1 18 0 0.72 0 0 
19 1 19 0 0.76 0 0 
20 1 20 0 0.8 0 0 
21 1 21 0 0.84 0 0 
22 1 22 0 0.88 0 0 
23 1 23 0 0.92 0 0 
24 1 24 0 0.96 0 0 
25 1 25 0 1 0 0 
26 1 26 0.04 0 0 0 
27 1 27 0.0399948 0.0399969 0 -0.175735 
28 1 28 0.0399921 0.0799962 0 -0.207861 
29 1 29 0.039987 0.119995 0 -0.100428 
30 1 30 0.0399844 0.159995 0 0.101497 
31 1 31 0.0399839 0.199994 0 0.148614 
32 1 32 0.03998 0.239992 0 0.176706 
33 1 33 0.0399806 0.27999 0 0.265241 
34 1 34 0.0399774 0.319989 0 0.27857 
35 1 35 0.0399794 0.35999 0 0.248767 
36 1 36 0.0399772 0.399992 0 0.263872 
37 1 37 0.0399778 0.439995 0 0.143813 
38 1 38 0.0399786 0.479997 0 0.122149 
39 1 39 0.0399808 0.519999 0 0.0669985 
40 1 40 0.0399803 0.560001 0 -0.0167339 
41 1 41 0.0399848 0.600003 0 0.0712857 
42 1 42 0.0399823 0.640004 0 0.137941 
43 1 43 0.0399857 0.680006 0 0.0614349 
44 1 44 0.0399848 0.720005 0 0.109444 
45 1 45 0.0399849 0.760004 0 -0.0488696 
46 1 46 0.0399871 0.800002 0 0.00783963 
47 1 47 0.039985 0.840001 0 0.0200552 
48 1 48 0.0399923 0.879996 0 0.177584 
49 1 49 0.0399874 0.919999 0 0.324215 
50 1 50 0.0400048 0.959989 0 0.743864 
51 1 51 0.0399899 1 0 1.50494 
52 1 52 0.08 0 0 0 
53 1 53 0.0799903 0.0399951 0 -0.354225 
54 1 54 0.0799829 0.0799918 0 -0.308298 
55 1 55 0.0799762 0.119991 0 -0.13245 
56 1 56 0.0799716 0.159991 0 0.224076 
57 1 57 0.0799692 0.19999 0 0.444439 
58 1 58 0.0799642 0.239987 0 0.536004 
59 1 59 0.0799625 0.279987 0 0.578611 
60 1 60 0.0799572 0.319985 0 0.547879 
61 1 61 0.0799556 0.359987 0 0.509929 
62 1 62 0.0799532 0.399988 0 0.535321 
63 1 63 0.0799517 0.439993 0 0.280008 
64 1 64 0.079956 0.479994 0 0.118187 
65 1 65 0.0799566 0.519998 0 -0.0670044 
66 1 66 0.0799607 0.559998 0 -0.163676 
67 1 67 0.0799617 0.600002 0 0.0644001 
68 1 68 0.0799648 0.64 0 0.273518 
69 1 69 0.079965 0.680003 0 0.281365 
70 1 70 0.0799714 0.719998 0 0.270835 
71 1 71 0.0799669 0.76 0 -0.0750256 
72 1 72 0.0799752 0.799994 0 -0.177167 
73 1 73 0.079973 0.839997 0 -0.0732855 
74 1 74 0.0799817 0.879992 0 0.269343 
75 1 75 0.0799862 0.919991 0 0.929524 
76 1 76 0.0799925 0.959994 0 1.65553 
77 1 77 0.0800022 0.999985 0 2.31147 
78 1 78 0.12 0 0 0 
79 1 79 0.119985 0.0399914 0 -0.442303 
80 1 80 0.119974 0.0799893 0 -0.325226 
81 1 81 0.119965 0.119988 0 -0.0603489 
82 1 82 0.11996 0.159987 0 0.484121 
83 1 83 0.119956 0.199986 0 0.882186 
84 1 84 0.11995 0.239984 0 1.04201 
85 1 85 0.119945 0.279984 0 1.02505 
86 1 86 0.119938 0.319983 0 0.930313 
87 1 87 0.119932 0.359985 0 0.879817 
88 1 88 0.119929 0.399987 0 0.801937 
89 1 89 0.119927 0.439989 0 0.377731 
90 1 90 0.119932 0.479991 0 0.00719317 
91 1 91 0.119933 0.519993 0 -0.327991 
92 1 92 0.119939 0.559993 0 -0.40669 
93 1 93 0.11994 0.599993 0 -0.024621 
94 1 94 0.119944 0.639992 0 0.324555 
95 1 95 0.11995 0.67999 0 0.463914 
96 1 96 0.119953 0.71999 0 0.371294 
97 1 97 0.119955 0.759986 0 -0.0827948 
98 1 98 0.119958 0.799987 0 -0.26002 
99 1 99 0.119961 0.839985 0 -0.207192 
100 1 100 0.119971 0.879986 0 0.272859 
101 1 101 0.119978 0.919989 0 1.37676 
102 1 102 0.119992 0.959982 0 2.32841 
103 1 103 0.12 0.99999 0 2.83071 
104 1 104 0.16 0 0 0 
105 1 105 0.15998 0.0399899 0 -0.406887 
106 1 106 0.159964 0.0799857 0 -0.273966 
107 1 107 0.159955 0.119983 0 0.100032 
108 1 108 0.159949 0.159982 0 0.814482 
109 1 109 0.159943 0.199981 0 1.36075 
110 1 110 0.159937 0.239981 0 1.642 
111 1 111 0.159927 0.27998 0 1.64477 
112 1 112 0.159917 0.31998 0 1.49725 
113 1 113 0.159908 0.35998 0 1.36989 
114 1 114 0.159903 0.399983 0 1.06515 
115 1 115 0.1599 0.439984 0 0.471862 
116 1 116 0.159903 0.479985 0 -0.122369 
117 1 117 0.159907 0.519985 0 -0.617739 
118 1 118 0.159912 0.559983 0 -0.657873 
119 1 119 0.159916 0.599981 0 -0.229195 
120 1 120 0.15992 0.639978 0 0.323642 
121 1 121 0.159926 0.679976 0 0.622662 
122 1 122 0.159932 0.719973 0 0.479046 
123 1 123 0.159935 0.759975 0 0.00175105 
124 1 124 0.159941 0.799972 0 -0.160368 
125 1 125 0.159945 0.839978 0 -0.0874038 
126 1 126 0.159957 0.879975 0 0.449107 
127 1 127 0.159969 0.91998 0 1.64153 
128 1 128 0.159986 0.959982 0 2.72236 
129 1 129 0.159994 0.999983 0 3.28164 
130 1 130 0.2 0 0 0 
131 1 131 0.199974 0.0399883 0 -0.308023 
132 1 132 0.199954 0.079981 0 -0.145669 
133 1 133 0.199943 0.119977 0 0.328908 
134 1 134 0.199936 0.159975 0 1.13086 
135 1 135 0.199929 0.199974 0 1.79955 
136 1 136 0.199921 0.239973 0 2.21831 
137 1 137 0.199909 0.279972 0 2.2606 
138 1 138 0.199896 0.319972 0 2.07367 
139 1 139 0.199884 0.359973 0 1.8322 
140 1 140 0.199877 0.399973 0 1.35387 
141 1 141 0.199875 0.439974 0 0.684297 
142 1 142 0.199877 0.479972 0 -0.0822771 
143 1 143 0.199882 0.519972 0 -0.752163 
144 1 144 0.199889 0.559968 0 -0.749975 
145 1 145 0.199891 0.599966 0 -0.387884 
146 1 146 0.199901 0.639961 0 0.303774 
147 1 147 0.199904 0.67996 0 0.793315 
148 1 148 0.199911 0.719957 0 0.630554 
149 1 149 0.199915 0.75996 0 0.256308 
150 1 150 0.199922 0.799962 0 0.0509198 
151 1 151 0.199929 0.839965 0 0.18432 
152 1 152 0.199943 0.879969 0 0.840109 
153 1 153 0.199957 0.919971 0 1.93004 
154 1 154 0.199975 0.959974 0 2.9945 
155 1 155 0.199988 0.99998 0 3.57884 
156 1 156 0.24 0 0 0 
157 1 157 0.239968 0.0399863 0 -0.173875 
158 1 158 0.239943 0.0799763 0 -0.00448732 
159 1 159 0.239931 0.11997 0 0.517422 
160 1 160 0.239921 0.159965 0 1.35182 
161 1 161 0.239913 0.199963 0 2.13384 
162 1 162 0.239903 0.23996 0 2.6849 
163 1 163 0.239889 0.27996 0 2.77711 
164 1 164 0.239873 0.319958 0 2.63434 
165 1 165 0.239858 0.359958 0 2.33384 
166 1 166 0.239849 0.399957 0 1.7069 
167 1 167 0.239847 0.439957 0 0.935795 
168 1 168 0.239848 0.479955 0 0.077222 
169 1 169 0.239853 0.519952 0 -0.664283 
170 1 170 0.23986 0.55995 0 -0.644635 
171 1 171 0.239863 0.599947 0 -0.363155 
172 1 172 0.239873 0.639944 0 0.359647 
173 1 173 0.239877 0.679942 0 1.0023 
174 1 174 0.239884 0.719941 0 0.935232 
175 1 175 0.23989 0.759943 0 0.771592 
176 1 176 0.239897 0.799946 0 0.529703 
177 1 177 0.239908 0.839952 0 0.591555 
178 1 178 0.239925 0.879955 0 1.31756 
179 1 179 0.23994 0.919961 0 2.30012 
180 1 180 0.239961 0.959963 0 3.22925 
181 1 181 0.239974 0.999971 0 3.7585 
182 1 182 0.28 0 0 0 
183 1 183 0.279963 0.0399836 0 0.0326345 
184 1 184 0.279934 0.0799703 0 0.210426 
185 1 185 0.279917 0.119961 0 0.704416 
186 1 186 0.279905 0.159953 0 1.48156 
187 1 187 0.279896 0.199949 0 2.29766 
188 1 188 0.279884 0.239945 0 2.91092 
189 1 189 0.279867 0.279942 0 3.10263 
190 1 190 0.27985 0.319939 0 3.06631 
191 1 191 0.279835 0.359937 0 2.70941 
192 1 192 0.279825 0.399935 0 2.00611 
193 1 193 0.279822 0.439932 0 1.19414 
194 1 194 0.279823 0.47993 0 0.378978 
195 1 195 0.279828 0.519928 0 -0.315028 
196 1 196 0.279834 0.559926 0 -0.336592 
197 1 197 0.279839 0.599926 0 -0.15466 
198 1 198 0.27985 0.639923 0 0.494723 
199 1 199 0.279853 0.679925 0 1.18094 
200 1 200 0.27986 0.719923 0 1.25919 
201 1 201 0.279866 0.759929 0 1.31397 
202 1 202 0.279873 0.79993 0 1.1925 
203 1 203 0.279886 0.839936 0 1.30541 
204 1 204 0.279905 0.87994 0 2.00008 
205 1 205 0.279923 0.919945 0 2.79204 
206 1 206 0.279943 0.959953 0 3.39106 
207 1 207 0.279957 0.999961 0 3.70438 
208 1 208 0.32 0 0 0 
209 1 209 0.319957 0.0399807 0 0.223615 
210 1 210 0.319926 0.0799636 0 0.347656 
211 1 211 0.319905 0.11995 0 0.742564 
212 1 212 0.319889 0.159939 0 1.46521 
213 1 213 0.319878 0.199932 0 2.2959 
214 1 214 0.319864 0.239926 0 2.96557 
215 1 215 0.319846 0.27992 0 3.38137 
216 1 216 0.319827 0.319917 0 3.48769 
217 1 217 0.319811 0.359912 0 3.02806 
218 1 218 0.3198 0.399908 0 2.32364 
219 1 219 0.319794 0.439905 0 1.49252 
220 1 220 0.319794 0.479903 0 0.725583 
221 1 221 0.319797 0.519904 0 0.12481 
222 1 222 0.319803 0.559903 0 0.020394 
223 1 223 0.319808 0.599904 0 0.164628 
224 1 224 0.319817 0.639902 0 0.712392 
225 1 225 0.319821 0.679904 0 1.35541 
226 1 226 0.319828 0.719904 0 1.61764 
227 1 227 0.319834 0.759908 0 1.79997 
228 1 228 0.319845 0.799912 0 1.83506 
229 1 229 0.319859 0.839918 0 2.10806 
230 1 230 0.319881 0.879924 0 2.7241 
231 1 231 0.3199 0.919932 0 3.26156 
232 1 232 0.319921 0.95994 0 3.45125 
233 1 233 0.319934 0.999952 0 3.50556 
234 1 234 0.36 0 0 0 
235 1 235 0.359955 0.0399781 0 0.346114 
236 1 236 0.35992 0.0799574 0 0.466329 
237 1 237 0.359894 0.11994 0 0.794477 
238 1 238 0.359875 0.159925 0 1.43394 
239 1 239 0.35986 0.199914 0 2.24113 
240 1 240 0.359843 0.239906 0 2.99895 
241 1 241 0.359826 0.2799 0 3.59371 
242 1 242 0.359807 0.319893 0 3.78768 
243 1 243 0.359791 0.359887 0 3.35084 
244 1 244 0.359781 0.39988 0 2.7166 
245 1 245 0.359774 0.439877 0 1.86067 
246 1 246 0.359773 0.479873 0 1.11994 
247 1 247 0.359773 0.519873 0 0.602251 
248 1 248 0.359776 0.559875 0 0.406667 
249 1 249 0.359783 0.599878 0 0.48544 
250 1 250 0.359791 0.639879 0 0.902118 
251 1 251 0.359795 0.679883 0 1.45589 
252 1 252 0.359801 0.719884 0 1.93814 
253 1 253 0.359805 0.759889 0 2.29377 
254 1 254 0.359818 0.799891 0 2.51292 
255 1 255 0.359832 0.839899 0 2.89013 
256 1 256 0.359854 0.879906 0 3.3331 
257 1 257 0.359876 0.919916 0 3.58767 
258 1 258 0.359896 0.959928 0 3.40231 
259 1 259 0.359911 0.999938 0 3.25117 
260 1 260 0.4 0 0 0 
261 1 261 0.399953 0.0399751 0 0.347396 
262 1 262 0.399916 0.0799509 0 0.509537 
263 1 263 0.399886 0.11993 0 0.803617 
264 1 264 0.399863 0.159912 0 1.37472 
265 1 265 0.399843 0.1999 0 2.19446 
266 1 266 0.399823 0.239889 0 3.09536 
267 1 267 0.399807 0.279882 0 3.88183 
268 1 268 0.399788 0.319873 0 4.19266 
269 1 269 0.399772 0.359864 0 3.8784 
270 1 270 0.399761 0.399857 0 3.22624 
271 1 271 0.399751 0.439851 0 2.25708 
272 1 272 0.399746 0.479848 0 1.57787 
273 1 273 0.399743 0.519848 0 1.08129 
274 1 274 0.399744 0.559849 0 0.809487 
275 1 275 0.399749 0.599853 0 0.841903 
276 1 276 0.399753 0.639855 0 1.04318 
277 1 277 0.399758 0.679859 0 1.51035 
278 1 278 0.399764 0.71986 0 2.14454 
279 1 279 0.39977 0.759865 0 2.6065 
280 1 280 0.399784 0.799869 0 3.06322 
281 1 281 0.399799 0.839876 0 3.47604 
282 1 282 0.399824 0.879887 0 3.68592 
283 1 283 0.399846 0.919898 0 3.69857 
284 1 284 0.399869 0.959911 0 3.26336 
285 1 285 0.399886 0.999924 0 3.01773 
286 1 286 0.44 0 0 0 
287 1 287 0.439954 0.039973 0 0.297297 
288 1 288 0.439915 0.0799464 0 0.50216 
289 1 289 0.43988 0.119924 0 0.79519 
290 1 290 0.439852 0.159903 0 1.38488 
291 1 291 0.439826 0.199889 0 2.25749 
292 1 292 0.439804 0.239878 0 3.27395 
293 1 293 0.439788 0.279868 0 4.27994 
294 1 294 0.43977 0.319858 0 4.74014 
295 1 295 0.439757 0.359847 0 4.51174 
296 1 296 0.439745 0.399837 0 3.86322 
297 1 297 0.439734 0.439828 0 2.82102 
298 1 298 0.439728 0.479823 0 2.17471 
299 1 299 0.439721 0.519821 0 1.65707 
300 1 300 0.43972 0.55982 0 1.24396 
301 1 301 0.439721 0.599824 0 1.23753 
302 1 302 0.439724 0.639827 0 1.23826 
303 1 303 0.43973 0.679832 0 1.54403 
304 1 304 0.439734 0.719835 0 2.2267 
305 1 305 0.439739 0.75984 0 2.71061 
306 1 306 0.439755 0.799844 0 3.39127 
307 1 307 0.439768 0.839852 0 3.85352 
308 1 308 0.439794 0.879862 0 3.8541 
309 1 309 0.439817 0.919875 0 3.65282 
310 1 310 0.439841 0.959889 0 3.13372 
311 1 311 0.439861 0.999902 0 2.95139 
312 1 312 0.48 0 0 0 
313 1 313 0.479955 0.0399725 0 0.231521 
314 1 314 0.479914 0.0799443 0 0.50453 
315 1 315 0.479875 0.11992 0 0.884877 
316 1 316 0.479841 0.159898 0 1.56449 
317 1 317 0.479809 0.199883 0 2.4997 
318 1 318 0.479786 0.239871 0 3.56428 
319 1 319 0.479768 0.27986 0 4.65889 
320 1 320 0.479752 0.319848 0 5.22533 
321 1 321 0.479739 0.359836 0 5.09432 
322 1 322 0.479726 0.399823 0 4.53156 
323 1 323 0.479713 0.439813 0 3.53572 
324 1 324 0.479702 0.479805 0 2.79982 
325 1 325 0.479692 0.519801 0 2.23043 
326 1 326 0.479687 0.559798 0 1.78148 
327 1 327 0.479685 0.599799 0 1.67869 
328 1 328 0.479684 0.6398 0 1.52077 
329 1 329 0.479688 0.679803 0 1.62387 
330 1 330 0.479694 0.719806 0 2.22836 
331 1 331 0.479701 0.75981 0 2.7667 
332 1 332 0.479718 0.799814 0 3.53537 
333 1 333 0.479733 0.839822 0 3.92011 
334 1 334 0.47976 0.879832 0 3.78607 
335 1 335 0.479782 0.919845 0 3.43434 
336 1 336 0.479809 0.959858 0 3.00946 
337 1 337 0.479833 0.999873 0 3.04323 
338 1 338 0.52 0 0 0 
339 1 339 0.519959 0.0399729 0 0.213583 
340 1 340 0.519914 0.0799449 0 0.555644 
341 1 341 0.51987 0.11992 0 1.05123 
342 1 342 0.519831 0.159899 0 1.8234 
343 1 343 0.519794 0.199883 0 2.79897 
344 1 344 0.519767 0.239868 0 3.90781 
345 1 345 0.519747 0.279856 0 4.98213 
346 1 346 0.519733 0.319843 0 5.57126 
347 1 347 0.519723 0.359828 0 5.54698 
348 1 348 0.519708 0.399813 0 5.00283 
349 1 349 0.519696 0.439799 0 4.06785 
350 1 350 0.519683 0.479788 0 3.31104 
351 1 351 0.519672 0.519778 0 2.77181 
352 1 352 0.519663 0.559772 0 2.40711 
353 1 353 0.519657 0.599771 0 2.16633 
354 1 354 0.519656 0.639771 0 1.83288 
355 1 355 0.519659 0.679773 0 1.71767 
356 1 356 0.519664 0.719776 0 2.11359 
357 1 357 0.519671 0.759778 0 2.67055 
358 1 358 0.519687 0.799781 0 3.48342 
359 1 359 0.5197 0.839787 0 3.80463 
360 1 360 0.519727 0.879796 0 3.6413 
361 1 361 0.519748 0.919809 0 3.2068 
362 1 362 0.519777 0.959823 0 2.95997 
363 1 363 0.519803 0.999839 0 3.25448 
364 1 364 0.56 0 0 0 
365 1 365 0.55996 0.0399741 0 0.263554 
366 1 366 0.559914 0.0799474 0 0.704814 
367 1 367 0.559867 0.119923 0 1.31613 
368 1 368 0.559821 0.159902 0 2.12917 
369 1 369 0.559779 0.199885 0 3.04639 
370 1 370 0.55975 0.239869 0 4.10177 
371 1 371 0.559728 0.279855 0 5.0214 
372 1 372 0.559714 0.319839 0 5.54536 
373 1 373 0.559702 0.359822 0 5.62489 
374 1 374 0.559686 0.399805 0 5.1367 
375 1 375 0.559672 0.439789 0 4.35059 
376 1 376 0.559654 0.479774 0 3.62191 
377 1 377 0.559641 0.519762 0 3.12023 
378 1 378 0.55963 0.559753 0 2.82507 
379 1 379 0.559621 0.599748 0 2.54048 
380 1 380 0.559616 0.639744 0 2.25093 
381 1 381 0.559616 0.679743 0 1.97638 
382 1 382 0.559623 0.719745 0 2.11265 
383 1 383 0.559632 0.759745 0 2.60763 
384 1 384 0.559646 0.799747 0 3.32939 
385 1 385 0.559661 0.839751 0 3.56638 
386 1 386 0.559687 0.879758 0 3.39059 
387 1 387 0.559706 0.91977 0 2.9439 
388 1 388 0.559738 0.959783 0 2.94533 
389 1 389 0.559766 0.999801 0 3.47601 
390 1 390 0.6 0 0 0 
391 1 391 0.599962 0.039975 0 0.361869 
392 1 392 0.599914 0.0799505 0 0.901534 
393 1 393 0.599862 0.119927 0 1.57106 
394 1 394 0.599813 0.159907 0 2.36274 
395 1 395 0.599768 0.199888 0 3.20386 
396 1 396 0.599736 0.23987 0 4.10173 
397 1 397 0.599711 0.279853 0 4.70838 
398 1 398 0.599697 0.319834 0 5.10606 
399 1 399 0.599684 0.359815 0 5.23662 
400 1 400 0.599667 0.399795 0 4.81218 
401 1 401 0.599653 0.439776 0 4.29887 
402 1 402 0.599634 0.479757 0 3.68838 
403 1 403 0.599622 0.519742 0 3.29665 
404 1 404 0.599607 0.559729 0 3.15266 
405 1 405 0.599595 0.599721 0 2.86843 
406 1 406 0.599591 0.639717 0 2.63842 
407 1 407 0.599589 0.679715 0 2.21635 
408 1 408 0.599593 0.719716 0 2.14221 
409 1 409 0.5996 0.759715 0 2.56693 
410 1 410 0.599612 0.799716 0 3.13129 
411 1 411 0.599625 0.839718 0 3.31685 
412 1 412 0.599648 0.879723 0 3.15167 
413 1 413 0.599666 0.919733 0 2.73421 
414 1 414 0.599698 0.959745 0 2.92686 
415 1 415 0.599724 0.999764 0 3.56702 
416 1 416 0.64 0 0 0 
417 1 417 0.639959 0.0399755 0 0.472685 
418 1 418 0.639911 0.0799526 0 1.08189 
419 1 419 0.639858 0.119931 0 1.7619 
420 1 420 0.639806 0.15991 0 2.4317 
421 1 421 0.639759 0.199889 0 3.10092 
422 1 422 0.639724 0.239867 0 3.78037 
423 1 423 0.639697 0.279847 0 4.08837 
424 1 424 0.63968 0.319825 0 4.39209 
425 1 425 0.639663 0.359805 0 4.58994 
426 1 426 0.639644 0.399783 0 4.26649 
427 1 427 0.639626 0.439763 0 3.99854 
428 1 428 0.639604 0.479744 0 3.49098 
429 1 429 0.639589 0.519728 0 3.22017 
430 1 430 0.639573 0.559714 0 3.29731 
431 1 431 0.63956 0.599703 0 3.14647 
432 1 432 0.639551 0.639696 0 3.02745 
433 1 433 0.639546 0.679691 0 2.56869 
434 1 434 0.639552 0.719689 0 2.39932 
435 1 435 0.639558 0.759688 0 2.66346 
436 1 436 0.63957 0.799688 0 2.95672 
437 1 437 0.639583 0.839687 0 3.07316 
438 1 438 0.639602 0.879691 0 2.90134 
439 1 439 0.639619 0.919698 0 2.59686 
440 1 440 0.639649 0.959711 0 2.94075 
441 1 441 0.639671 0.999732 0 3.54987 
442 1 442 0.68 0 0 0 
443 1 443 0.679957 0.0399754 0 0.491926 
444 1 444 0.679907 0.0799533 0 1.08232 
445 1 445 0.679852 0.119931 0 1.75901 
446 1 446 0.6798 0.159909 0 2.34048 
447 1 447 0.679754 0.199885 0 2.82419 
448 1 448 0.679717 0.23986 0 3.29123 
449 1 449 0.679686 0.279836 0 3.38435 
450 1 450 0.679667 0.319812 0 3.56415 
451 1 451 0.679646 0.35979 0 3.80695 
452 1 452 0.679626 0.399768 0 3.69068 
453 1 453 0.679606 0.439749 0 3.70813 
454 1 454 0.679584 0.479729 0 3.37216 
455 1 455 0.679569 0.519711 0 3.22045 
456 1 456 0.67955 0.559696 0 3.38896 
457 1 457 0.679537 0.599685 0 3.32558 
458 1 458 0.679529 0.639677 0 3.3445 
459 1 459 0.679522 0.679671 0 2.96668 
460 1 460 0.679524 0.719669 0 2.73287 
461 1 461 0.679526 0.759667 0 2.72934 
462 1 462 0.679535 0.799666 0 2.74742 
463 1 463 0.679545 0.839664 0 2.84007 
464 1 464 0.679559 0.879667 0 2.68659 
465 1 465 0.679574 0.919673 0 2.53762 
466 1 466 0.679597 0.959686 0 2.88793 
467 1 467 0.679613 0.99971 0 3.29852 
468 1 468 0.72 0 0 0 
469 1 469 0.71995 0.0399746 0 0.398271 
470 1 470 0.7199 0.0799519 0 0.973699 
471 1 471 0.719847 0.119929 0 1.64735 
472 1 472 0.719796 0.159904 0 2.12425 
473 1 473 0.719749 0.199878 0 2.44443 
474 1 474 0.71971 0.23985 0 2.7415 
475 1 475 0.719678 0.279822 0 2.73775 
476 1 476 0.719652 0.319797 0 2.87719 
477 1 477 0.719626 0.359776 0 3.18754 
478 1 478 0.719603 0.399754 0 3.2804 
479 1 479 0.719578 0.439736 0 3.50731 
480 1 480 0.719552 0.479718 0 3.33607 
481 1 481 0.719534 0.519702 0 3.23707 
482 1 482 0.719514 0.559688 0 3.40682 
483 1 483 0.719501 0.599674 0 3.47502 
484 1 484 0.719488 0.639663 0 3.60407 
485 1 485 0.71948 0.679654 0 3.30949 
486 1 486 0.719482 0.71965 0 3.05305 
487 1 487 0.719483 0.759647 0 2.83266 
488 1 488 0.719492 0.799647 0 2.62653 
489 1 489 0.719501 0.839646 0 2.6421 
490 1 490 0.71951 0.879649 0 2.54331 
491 1 491 0.719523 0.919655 0 2.61696 
492 1 492 0.719538 0.959671 0 2.87628 
493 1 493 0.719548 0.999697 0 3.00099 
494 1 494 0.76 0 0 0 
495 1 495 0.759946 0.0399735 0 0.174055 
496 1 496 0.759893 0.0799498 0 0.717949 
497 1 497 0.759839 0.119926 0 1.41319 
498 1 498 0.759791 0.159898 0 1.87122 
499 1 499 0.759746 0.199869 0 2.14015 
500 1 500 0.759705 0.239838 0 2.313 
501 1 501 0.759669 0.279809 0 2.30802 
502 1 502 0.759639 0.319782 0 2.47982 
503 1 503 0.759608 0.359761 0 2.86962 
504 1 504 0.759582 0.399741 0 3.17819 
505 1 505 0.759555 0.439723 0 3.51118 
506 1 506 0.759531 0.479705 0 3.45118 
507 1 507 0.759512 0.519689 0 3.36665 
508 1 508 0.759491 0.559674 0 3.45924 
509 1 509 0.759478 0.59966 0 3.60266 
510 1 510 0.759466 0.639649 0 3.76227 
511 1 511 0.759458 0.67964 0 3.60476 
512 1 512 0.759453 0.719636 0 3.37437 
513 1 513 0.75945 0.759634 0 2.9244 
514 1 514 0.759455 0.799634 0 2.47649 
515 1 515 0.759458 0.839635 0 2.3617 
516 1 516 0.759463 0.87964 0 2.36316 
517 1 517 0.759471 0.919649 0 2.65348 
518 1 518 0.759476 0.959667 0 2.7785 
519 1 519 0.759478 0.999695 0 2.63709 
520 1 520 0.8 0 0 0 
521 1 521 0.799937 0.0399724 0 -0.032895 
522 1 522 0.799883 0.0799477 0 0.458735 
523 1 523 0.799832 0.119922 0 1.15358 
524 1 524 0.799784 0.159893 0 1.64712 
525 1 525 0.79974 0.199861 0 1.90915 
526 1 526 0.799698 0.239828 0 2.01178 
527 1 527 0.799659 0.279798 0 2.14218 
528 1 528 0.799621 0.319771 0 2.35593 
529 1 529 0.799587 0.359749 0 2.71571 
530 1 530 0.799556 0.399729 0 3.1819 
531 1 531 0.799525 0.439713 0 3.57942 
532 1 532 0.799497 0.479696 0 3.61527 
533 1 533 0.799472 0.51968 0 3.52233 
534 1 534 0.799452 0.559665 0 3.48937 
535 1 535 0.799438 0.59965 0 3.63357 
536 1 536 0.799423 0.639637 0 3.78035 
537 1 537 0.799412 0.679626 0 3.79156 
538 1 538 0.799405 0.719621 0 3.54546 
539 1 539 0.799403 0.75962 0 2.8939 
540 1 540 0.799406 0.799622 0 2.32631 
541 1 541 0.799407 0.839627 0 2.14173 
542 1 542 0.799409 0.879636 0 2.29263 
543 1 543 0.79941 0.91965 0 2.74868 
544 1 544 0.799407 0.959673 0 2.72274 
545 1 545 0.799404 0.999704 0 2.37356 
546 1 546 0.84 0 0 0 
547 1 547 0.83993 0.0399707 0 -0.241103 
548 1 548 0.839872 0.0799452 0 0.208852 
549 1 549 0.839822 0.119919 0 0.926198 
550 1 550 0.839777 0.159888 0 1.44873 
551 1 551 0.839734 0.199855 0 1.72464 
552 1 552 0.839691 0.23982 0 1.82144 
553 1 553 0.839648 0.279789 0 2.08864 
554 1 554 0.839606 0.319761 0 2.35361 
555 1 555 0.839566 0.359738 0 2.72493 
556 1 556 0.839532 0.399719 0 3.30925 
557 1 557 0.8395 0.439701 0 3.69828 
558 1 558 0.839473 0.479684 0 3.78249 
559 1 559 0.839446 0.519667 0 3.66218 
560 1 560 0.839426 0.559652 0 3.49589 
561 1 561 0.83941 0.599637 0 3.63304 
562 1 562 0.839397 0.639626 0 3.79846 
563 1 563 0.839386 0.679616 0 3.95845 
564 1 564 0.839372 0.719613 0 3.66929 
565 1 565 0.839365 0.759613 0 2.93982 
566 1 566 0.83936 0.799619 0 2.3245 
567 1 567 0.839356 0.839628 0 2.01333 
568 1 568 0.839353 0.879641 0 2.23201 
569 1 569 0.839347 0.919659 0 2.73882 
570 1 570 0.839336 0.959685 0 2.63377 
571 1 571 0.839327 0.999718 0 2.20921 
572 1 572 0.88 0 0 0 
573 1 573 0.87992 0.0399686 0 -0.323283 
574 1 574 0.87986 0.0799408 0 0.0593319 
575 1 575 0.879812 0.119912 0 0.710442 
576 1 576 0.879767 0.15988 0 1.21689 
577 1 577 0.879724 0.199847 0 1.5718 
578 1 578 0.87968 0.239812 0 1.72631 
579 1 579 0.879633 0.27978 0 2.06784 
580 1 580 0.879585 0.319752 0 2.36212 
581 1 581 0.87954 0.359729 0 2.71688 
582 1 582 0.879501 0.39971 0 3.32026 
583 1 583 0.879465 0.439693 0 3.68924 
584 1 584 0.879433 0.479678 0 3.85084 
585 1 585 0.879402 0.519663 0 3.77344 
586 1 586 0.879382 0.559648 0 3.55394 
587 1 587 0.879364 0.599633 0 3.67608 
588 1 588 0.879346 0.639621 0 3.80971 
589 1 589 0.879332 0.679611 0 4.02902 
590 1 590 0.879316 0.719608 0 3.70887 
591 1 591 0.879308 0.75961 0 2.97632 
592 1 592 0.879299 0.799619 0 2.27643 
593 1 593 0.879295 0.839632 0 1.85818 
594 1 594 0.879288 0.87965 0 2.15815 
595 1 595 0.879277 0.919673 0 2.63949 
596 1 596 0.87926 0.959703 0 2.58355 
597 1 597 0.879246 0.999738 0 2.24128 
598 1 598 0.92 0 0 0 
599 1 599 0.919915 0.039966 0 -0.221651 
600 1 600 0.91985 0.0799346 0 0.0399968 
601 1 601 0.919801 0.119903 0 0.507812 
602 1 602 0.919757 0.159869 0 0.923674 
603 1 603 0.919714 0.199835 0 1.28468 
604 1 604 0.919668 0.239801 0 1.46386 
605 1 605 0.919617 0.27977 0 1.88272 
606 1 606 0.919565 0.319742 0 2.25911 
607 1 607 0.919516 0.359719 0 2.61368 
608 1 608 0.919473 0.399701 0 3.21826 
609 1 609 0.919434 0.439685 0 3.6123 
610 1 610 0.919404 0.479671 0 3.86047 
611 1 611 0.919372 0.519656 0 3.87959 
612 1 612 0.91935 0.559643 0 3.66354 
613 1 613 0.919331 0.599631 0 3.72317 
614 1 614 0.919316 0.639623 0 3.80327 
615 1 615 0.9193 0.679617 0 4.06357 
616 1 616 0.919278 0.719616 0 3.77576 
617 1 617 0.919264 0.759619 0 3.13396 
618 1 618 0.919248 0.79963 0 2.40922 
619 1 619 0.919239 0.839645 0 1.9699 
620 1 620 0.919224 0.879667 0 2.24613 
621 1 621 0.919207 0.919693 0 2.53715 
622 1 622 0.919184 0.959724 0 2.59312 
623 1 623 0.919163 0.999762 0 2.4232 
624 1 624 0.96 0 0 0 
625 1 625 0.95991 0.0399628 0 -0.00636581 
626 1 626 0.959842 0.0799266 0 0.100276 
627 1 627 0.959792 0.119891 0 0.338818 
628 1 628 0.959746 0.159856 0 0.668887 
629 1 629 0.959701 0.199821 0 1.04781 
630 1 630 0.959652 0.239787 0 1.23272 
631 1 631 0.959598 0.279758 0 1.62527 
632 1 632 0.95954 0.319731 0 2.05829 
633 1 633 0.959485 0.35971 0 2.45979 
634 1 634 0.959437 0.399694 0 3.09188 
635 1 635 0.959392 0.43968 0 3.58385 
636 1 636 0.959357 0.47967 0 3.92683 
637 1 637 0.959322 0.51966 0 4.05467 
638 1 638 0.9593 0.55965 0 3.88452 
639 1 639 0.959279 0.599641 0 3.9024 
640 1 640 0.95926 0.639633 0 3.94462 
641 1 641 0.95924 0.679628 0 4.11206 
642 1 642 0.959218 0.719628 0 3.74554 
643 1 643 0.959202 0.759632 0 3.19353 
644 1 644 0.959182 0.799646 0 2.52071 
645 1 645 0.959173 0.839662 0 2.11592 
646 1 646 0.959152 0.879687 0 2.23717 
647 1 647 0.959132 0.919716 0 2.29211 
648 1 648 0.959103 0.95975 0 2.50134 
649 1 649 0.959077 0.999789 0 2.49105 
650 1 650 1 0 0 0 
651 1 651 0.999912 0.0399593 0 0.364881 
652 1 652 0.999839 0.0799186 0 0.395397 
653 1 653 0.999783 0.119879 0 0.356605 
654 1 654 0.999735 0.159842 0 0.465762 
655 1 655 0.999686 0.199807 0 0.76965 
656 1 656 0.999634 0.239775 0 0.967576 
657 1 657 0.999576 0.279747 0 1.33233 
658 1 658 0.999515 0.319722 0 1.8164 
659 1 659 0.999455 0.359702 0 2.27093 
660 1 660 0.999403 0.399687 0 2.91732 
661 1 661 0.999356 0.439675 0 3.51659 
662 1 662 0.99932 0.479667 0 3.97305 
663 1 663 0.999288 0.51966 0 4.2843 
664 1 664 0.999264 0.559653 0 4.20137 
665 1 665 0.999243 0.599649 0 4.11086 
666 1 666 0.999226 0.639646 0 4.0422 
667 1 667 0.999206 0.679646 0 4.10327 
668 1 668 0.999181 0.719649 0 3.79616 
669 1 669 0.999158 0.759655 0 3.43758 
670 1 670 0.999131 0.799669 0 2.86375 
671 1 671 0.999115 0.839687 0 2.49336 
672 1 672 0.999085 0.879714 0 2.37239 
673 1 673 0.99906 0.919744 0 2.21278 
674 1 674 0.999024 0.95978 0 2.49505 
675 1 675 0.99899 0.99982 0 2.51624 
676 1 676 1.04 0 0 0 
677 1 677 1.03991 0.0399576 0 0.780307 
678 1 678 1.03984 0.0799129 0 0.761784 
679 1 679 1.03978 0.119871 0 0.51109 
680 1 680 1.03972 0.159834 0 0.500109 
681 1 681 1.03967 0.1998 0 0.739197 
682 1 682 1.03961 0.239769 0 0.87033 
683 1 683 1.03955 0.279742 0 1.14338 
684 1 684 1.03949 0.319718 0 1.68929 
685 1 685 1.03942 0.359699 0 2.27067 
686 1 686 1.03936 0.399684 0 2.97492 
687 1 687 1.03931 0.439675 0 3.69397 
688 1 688 1.03927 0.47967 0 4.27202 
689 1 689 1.03923 0.519666 0 4.73224 
690 1 690 1.03921 0.559664 0 4.70693 
691 1 691 1.03919 0.599662 0 4.52265 
692 1 692 1.03917 0.63966 0 4.28931 
693 1 693 1.03914 0.679661 0 4.13181 
694 1 694 1.03912 0.719665 0 3.85205 
695 1 695 1.03909 0.759674 0 3.66677 
696 1 696 1.03906 0.79969 0 3.24018 
697 1 697 1.03904 0.839712 0 2.9317 
698 1 698 1.03901 0.879743 0 2.54649 
699 1 699 1.03898 0.919777 0 2.18908 
700 1 700 1.03894 0.959816 0 2.33532 
701 1 701 1.0389 0.999857 0 2.19203 
702 1 702 1.08 0 0 0 
703 1 703 1.07992 0.0399559 0 1.16236 
704 1 704 1.07984 0.0799106 0 1.16926 
705 1 705 1.07977 0.119869 0 0.814795 
706 1 706 1.07971 0.159832 0 0.7491 
707 1 707 1.07965 0.199799 0 0.929796 
708 1 708 1.07959 0.23977 0 0.996419 
709 1 709 1.07953 0.279744 0 1.16374 
710 1 710 1.07946 0.319721 0 1.69063 
711 1 711 1.07939 0.3597 0 2.36559 
712 1 712 1.07933 0.399684 0 3.12343 
713 1 713 1.07927 0.439674 0 3.91433 
714 1 714 1.07923 0.479667 0 4.58385 
715 1 715 1.0792 0.519664 0 5.17011 
716 1 716 1.07917 0.559664 0 5.22059 
717 1 717 1.07915 0.599666 0 4.98919 
718 1 718 1.07913 0.639671 0 4.61475 
719 1 719 1.07911 0.679677 0 4.2923 
720 1 720 1.07908 0.719685 0 4.08174 
721 1 721 1.07905 0.759697 0 4.08514 
722 1 722 1.07901 0.799715 0 3.89315 
723 1 723 1.07898 0.839741 0 3.63729 
724 1 724 1.07894 0.879776 0 2.93858 
725 1 725 1.07891 0.919814 0 2.35781 
726 1 726 1.07886 0.959857 0 2.15289 
727 1 727 1.07881 0.999898 0 1.68655 
728 1 728 1.12 0 0 0 
729 1 729 1.11992 0.0399564 0 1.32194 
730 1 730 1.11984 0.0799123 0 1.50787 
731 1 731 1.11976 0.119872 0 1.24728 
732 1 732 1.1197 0.159837 0 1.12913 
733 1 733 1.11963 0.199806 0 1.20876 
734 1 734 1.11957 0.239779 0 1.25921 
735 1 735 1.1195 0.279754 0 1.43163 
736 1 736 1.11943 0.31973 0 1.9572 
737 1 737 1.11936 0.359708 0 2.69 
738 1 738 1.11929 0.399689 0 3.48794 
739 1 739 1.11923 0.439677 0 4.34344 
740 1 740 1.11918 0.47967 0 5.11368 
741 1 741 1.11914 0.519668 0 5.78483 
742 1 742 1.11911 0.55967 0 5.87599 
743 1 743 1.11909 0.599673 0 5.58248 
744 1 744 1.11906 0.639678 0 5.04816 
745 1 745 1.11903 0.679686 0 4.56884 
746 1 746 1.11901 0.719698 0 4.38997 
747 1 747 1.11897 0.759715 0 4.53252 
748 1 748 1.11894 0.799739 0 4.55953 
749 1 749 1.1189 0.839771 0 4.35692 
750 1 750 1.11885 0.87981 0 3.46794 
751 1 751 1.11882 0.919853 0 2.69633 
752 1 752 1.11877 0.9599 0 1.97951 
753 1 753 1.11873 0.999941 0 1.11196 
754 1 754 1.16 0 0 0 
755 1 755 1.15992 0.0399573 0 1.30637 
756 1 756 1.15984 0.0799155 0 1.64868 
757 1 757 1.15976 0.119878 0 1.58285 
758 1 758 1.15968 0.159845 0 1.55622 
759 1 759 1.15961 0.199816 0 1.61322 
760 1 760 1.15954 0.239789 0 1.60056 
761 1 761 1.15947 0.279763 0 1.72508 
762 1 762 1.1594 0.319738 0 2.22725 
763 1 763 1.15933 0.359714 0 3.02341 
764 1 764 1.15926 0.399692 0 3.8484 
765 1 765 1.1592 0.439677 0 4.69416 
766 1 766 1.15915 0.479667 0 5.51373 
767 1 767 1.15911 0.519663 0 6.24009 
768 1 768 1.15907 0.559665 0 6.44154 
769 1 769 1.15904 0.599671 0 6.21888 
770 1 770 1.15902 0.639684 0 5.62514 
771 1 771 1.15899 0.679699 0 5.09803 
772 1 772 1.15896 0.719716 0 4.99413 
773 1 773 1.15892 0.759739 0 5.20044 
774 1 774 1.15887 0.799767 0 5.27293 
775 1 775 1.15883 0.839805 0 5.01112 
776 1 776 1.15878 0.879848 0 3.9789 
777 1 777 1.15874 0.919895 0 2.98327 
778 1 778 1.15868 0.959944 0 1.73697 
779 1 779 1.15864 0.999986 0 0.53269 
780 1 780 1.2 0 0 0 
781 1 781 1.19992 0.0399592 0 1.1136 
782 1 782 1.19983 0.0799201 0 1.60224 
783 1 783 1.19975 0.119884 0 1.77266 
784 1 784 1.19967 0.159852 0 1.80453 
785 1 785 1.19959 0.199824 0 1.83419 
786 1 786 1.19952 0.239798 0 1.83981 
787 1 787 1.19945 0.279772 0 2.02406 
788 1 788 1.19938 0.319747 0 2.53408 
789 1 789 1.19931 0.359722 0 3.36285 
790 1 790 1.19923 0.399698 0 4.20002 
791 1 791 1.19916 0.439681 0 5.05337 
792 1 792 1.1991 0.47967 0 5.97374 
793 1 793 1.19905 0.519667 0 6.76471 
794 1 794 1.19901 0.559671 0 7.06644 
795 1 795 1.19897 0.599678 0 6.89184 
796 1 796 1.19894 0.639691 0 6.21807 