ITEM: TIMESTEP
0
ITEM: NUMBER OF ATOMS
6875
ITEM: BOX BOUNDS sm sm sm
0 4
0 2
0 0
ITEM: ATOMS id type tag x y z damage s11 s22 s33 s12 s13 s23 vx T ienergy 
1 1 1 0.0199958 0.0199976 0 0 -0.0564269 -0.0594856 -0.0371405 -0.0208146 0 0 -0.192758 0 0 
2 1 2 0.0199918 0.059993 0 0 -0.100179 -0.0650841 -0.0529559 -0.0327384 0 0 -0.265311 0 0 
3 1 3 0.0199909 0.0999907 0 0 -0.127832 -0.0775133 -0.0658137 -0.0433961 0 0 -0.116651 0 0 
4 1 4 0.0199917 0.139988 0 0 -0.136898 -0.0743209 -0.0676992 -0.0499844 0 0 0.213597 0 0 
5 1 5 0.0199901 0.179987 0 0 -0.147797 -0.0763241 -0.0718349 -0.0578761 0 0 0.204706 0 0 
6 1 6 0.019989 0.219986 0 0 -0.164605 -0.0808675 -0.0786828 -0.0604577 0 0 0.134779 0 0 
7 1 7 0.0199877 0.259986 0 0 -0.178957 -0.0849976 -0.0846115 -0.0617162 0 0 0.215379 0 0 
8 1 8 0.019987 0.299986 0 0 -0.193753 -0.0870783 -0.090024 -0.0609292 0 0 0.239576 0 0 
9 1 9 0.0199848 0.339988 0 0 -0.209809 -0.093307 -0.097174 -0.0567772 0 0 0.0607734 0 0 
10 1 10 0.019984 0.379988 0 0 -0.221924 -0.0991159 -0.102925 -0.0523975 0 0 -0.152587 0 0 
11 1 11 0.0199816 0.41999 0 0 -0.229397 -0.10111 -0.105963 -0.0476285 0 0 -0.156925 0 0 
12 1 12 0.0199788 0.45999 0 0 -0.240249 -0.108219 -0.111729 -0.0441974 0 0 -0.281785 0 0 
13 1 13 0.0199742 0.499992 0 0 -0.24698 -0.110902 -0.114751 -0.0390637 0 0 -0.510013 0 0 
14 1 14 0.0199707 0.539993 0 0 -0.257272 -0.110705 -0.117994 -0.036601 0 0 -0.53364 0 0 
15 1 15 0.0199643 0.579995 0 0 -0.273058 -0.118552 -0.125583 -0.0268861 0 0 -0.452455 0 0 
16 1 16 0.0199578 0.619996 0 0 -0.28276 -0.118335 -0.128629 -0.0199817 0 0 -0.420964 0 0 
17 1 17 0.0199502 0.659998 0 0 -0.301365 -0.131661 -0.138883 -0.0102856 0 0 -0.742634 0 0 
18 1 18 0.0199492 0.699999 0 0 -0.313574 -0.130242 -0.142348 -0.001724 0 0 -1.35762 0 0 
19 1 19 0.0199513 0.740003 0 0 -0.324516 -0.142317 -0.14974 0.0117726 0 0 -1.55723 0 0 
20 1 20 0.0199576 0.780004 0 0 -0.329292 -0.126827 -0.146298 0.019183 0 0 -1.19233 0 0 
21 1 21 0.019961 0.82001 0 0 -0.345559 -0.140641 -0.155959 0.0434481 0 0 -1.06962 0 0 
22 1 22 0.0199667 0.860013 0 0 -0.35428 -0.131713 -0.155892 0.0552425 0 0 -0.728811 0 0 
23 1 23 0.0199664 0.900021 0 0 -0.389112 -0.154674 -0.174457 0.0814375 0 0 -0.864724 0 0 
24 1 24 0.0199685 0.940025 0 0 -0.413166 -0.143625 -0.178645 0.10278 0 0 -0.414661 0 0 
25 1 25 0.0199526 0.980045 0 0 -0.577332 -0.129894 -0.236982 0.113381 0 0 -0.413403 0 0 
26 1 26 0.0599951 0.019994 0 0 -0.0674347 -0.108461 -0.0563712 -0.0285222 0 0 -0.138659 0 0 
27 1 27 0.0599882 0.0599828 0 0 -0.0922468 -0.0967135 -0.0605601 -0.0268142 0 0 -0.0463279 0 0 
28 1 28 0.059981 0.0999756 0 0 -0.109697 -0.0928715 -0.064921 -0.0294969 0 0 -0.0690385 0 0 
29 1 29 0.0599782 0.13997 0 0 -0.119252 -0.0856455 -0.0656653 -0.0309431 0 0 0.172399 0 0 
30 1 30 0.0599747 0.179966 0 0 -0.136663 -0.0851952 -0.0711103 -0.0422128 0 0 0.360409 0 0 
31 1 31 0.0599723 0.219963 0 0 -0.148894 -0.0833902 -0.0744559 -0.0433531 0 0 0.388964 0 0 
32 1 32 0.059968 0.259962 0 0 -0.16818 -0.0844509 -0.0809837 -0.0510712 0 0 0.521113 0 0 
33 1 33 0.0599649 0.299961 0 0 -0.188762 -0.0848638 -0.0877162 -0.0513529 0 0 0.322242 0 0 
34 1 34 0.0599609 0.339963 0 0 -0.208669 -0.0838368 -0.0937748 -0.0538867 0 0 0.165088 0 0 
35 1 35 0.0599593 0.379965 0 0 -0.229454 -0.0955217 -0.104193 -0.0458705 0 0 -0.0501635 0 0 
36 1 36 0.0599583 0.419968 0 0 -0.237199 -0.0913191 -0.105328 -0.0457858 0 0 0.122674 0 0 
37 1 37 0.05996 0.45997 0 0 -0.24843 -0.103864 -0.112962 -0.0391663 0 0 0.165335 0 0 
38 1 38 0.0599613 0.499973 0 0 -0.25639 -0.0994564 -0.114103 -0.0383299 0 0 0.544433 0 0 
39 1 39 0.0599628 0.539976 0 0 -0.270183 -0.102103 -0.11938 -0.03404 0 0 0.899771 0 0 
40 1 40 0.0599637 0.579981 0 0 -0.282346 -0.0990107 -0.122292 -0.0290874 0 0 0.847228 0 0 
41 1 41 0.0599683 0.619987 0 0 -0.293722 -0.0982509 -0.125701 -0.0178828 0 0 0.837261 0 0 
42 1 42 0.0599707 0.659995 0 0 -0.308375 -0.105716 -0.132802 -0.0128122 0 0 1.34519 0 0 
43 1 43 0.0599688 0.700002 0 0 -0.320922 -0.104162 -0.136333 0.00101149 0 0 1.56633 0 0 
44 1 44 0.0599626 0.740011 0 0 -0.338441 -0.108626 -0.143392 0.0158601 0 0 1.49858 0 0 
45 1 45 0.0599538 0.78002 0 0 -0.353699 -0.0980647 -0.1449 0.0225003 0 0 1.57488 0 0 
46 1 46 0.0599446 0.820032 0 0 -0.364992 -0.0909557 -0.146241 0.0495217 0 0 0.874361 0 0 
47 1 47 0.0599367 0.860046 0 0 -0.383554 -0.0907634 -0.152148 0.0540227 0 0 1.09537 0 0 
48 1 48 0.0599272 0.900061 0 0 -0.396572 -0.08096 -0.153169 0.0840615 0 0 0.55838 0 0 
49 1 49 0.059914 0.940083 0 0 -0.470674 -0.0591121 -0.169964 0.0872682 0 0 0.737356 0 0 
50 1 50 0.0598782 0.980116 0 0 -0.44224 0.0326023 -0.131381 0.0150381 0 0 0.556813 0 0 
51 1 51 0.0999899 0.0199922 0 0 -0.0746176 -0.130093 -0.0656265 -0.0373058 0 0 -0.196998 0 0 
52 1 52 0.0999762 0.0599791 0 0 -0.0852419 -0.112371 -0.0633416 -0.0257096 0 0 -0.0914193 0 0 
53 1 53 0.0999691 0.0999683 0 0 -0.0991967 -0.106066 -0.0657865 -0.0232391 0 0 0.0046166 0 0 
54 1 54 0.0999652 0.13996 0 0 -0.112893 -0.0983126 -0.0676922 -0.0241924 0 0 0.067374 0 0 
55 1 55 0.0999592 0.179953 0 0 -0.123464 -0.0947588 -0.0699471 -0.0348359 0 0 0.331146 0 0 
56 1 56 0.0999536 0.219949 0 0 -0.132058 -0.0862972 -0.0699906 -0.0334016 0 0 0.320844 0 0 
57 1 57 0.0999469 0.259946 0 0 -0.154351 -0.0870666 -0.0773906 -0.0476998 0 0 0.733249 0 0 
58 1 58 0.0999392 0.299945 0 0 -0.180126 -0.0855127 -0.0851592 -0.0419952 0 0 0.546216 0 0 
59 1 59 0.0999314 0.339945 0 0 -0.202668 -0.0830098 -0.0915895 -0.0499631 0 0 0.548178 0 0 
60 1 60 0.0999252 0.379948 0 0 -0.224677 -0.0869998 -0.0999289 -0.0367706 0 0 0.0688456 0 0 
61 1 61 0.0999203 0.419952 0 0 -0.23929 -0.0885472 -0.105113 -0.0415865 0 0 0.0696507 0 0 
62 1 62 0.0999145 0.459956 0 0 -0.252568 -0.0951798 -0.111505 -0.0307082 0 0 -0.242978 0 0 
63 1 63 0.099908 0.499961 0 0 -0.256197 -0.0886982 -0.110591 -0.0378079 0 0 -0.301055 0 0 
64 1 64 0.0998997 0.539967 0 0 -0.266528 -0.0828918 -0.112041 -0.0304263 0 0 -0.228242 0 0 
65 1 65 0.0998901 0.579975 0 0 -0.275906 -0.078655 -0.113689 -0.0284921 0 0 -0.116044 0 0 
66 1 66 0.0998786 0.619984 0 0 -0.287148 -0.0660057 -0.11324 -0.0159723 0 0 0.00199586 0 0 
67 1 67 0.0998687 0.659994 0 0 -0.29625 -0.0705341 -0.117614 -0.00838621 0 0 -0.574041 0 0 
68 1 68 0.0998627 0.700006 0 0 -0.29974 -0.0571885 -0.114452 0.00363148 0 0 -1.01527 0 0 
69 1 69 0.099861 0.740021 0 0 -0.325142 -0.0581826 -0.122927 0.0161096 0 0 -1.47085 0 0 
70 1 70 0.0998596 0.780037 0 0 -0.352204 -0.0578415 -0.131507 0.0230245 0 0 -0.927382 0 0 
71 1 71 0.0998587 0.820056 0 0 -0.379281 -0.050562 -0.137862 0.0480958 0 0 -1.11556 0 0 
72 1 72 0.0998573 0.860078 0 0 -0.402502 -0.0507656 -0.145393 0.0475623 0 0 -0.335976 0 0 
73 1 73 0.0998506 0.900104 0 0 -0.430146 -0.0231085 -0.145379 0.0679704 0 0 -0.407664 0 0 
74 1 74 0.0998343 0.940134 0 0 -0.43159 -0.00330263 -0.139484 0.0285051 0 0 -0.14141 0 0 
75 1 75 0.0998032 0.980165 0 0 -0.404969 -0.0144986 -0.134535 0.0171217 0 0 -0.357449 0 0 
76 1 76 0.139991 0.0199916 0 0 -0.0778234 -0.141875 -0.0704314 -0.0439356 0 0 -0.00456828 0 0 
77 1 77 0.139977 0.0599761 0 0 -0.0868347 -0.124526 -0.0677501 -0.0297693 0 0 -0.0256436 0 0 
78 1 78 0.139965 0.0999634 0 0 -0.0960361 -0.121634 -0.0697762 -0.0292259 0 0 -0.0569 0 0 
79 1 79 0.139957 0.139953 0 0 -0.0965597 -0.10112 -0.0633599 -0.0269134 0 0 0.0801109 0 0 
80 1 80 0.13995 0.179944 0 0 -0.108178 -0.0991102 -0.0664399 -0.0355386 0 0 0.593606 0 0 
81 1 81 0.139942 0.219938 0 0 -0.121841 -0.0866575 -0.0668281 -0.0338733 0 0 0.559064 0 0 
82 1 82 0.139931 0.259934 0 0 -0.147536 -0.0881773 -0.0755593 -0.0476267 0 0 0.968352 0 0 
83 1 83 0.13992 0.299933 0 0 -0.167052 -0.0776893 -0.0784584 -0.0380339 0 0 0.686716 0 0 
84 1 84 0.139909 0.339933 0 0 -0.197782 -0.0858876 -0.0909499 -0.0444946 0 0 0.677303 0 0 
85 1 85 0.1399 0.379935 0 0 -0.221492 -0.081092 -0.0970144 -0.0287212 0 0 0.247118 0 0 
86 1 86 0.139895 0.419939 0 0 -0.243345 -0.0918327 -0.10747 -0.0312558 0 0 0.306925 0 0 
87 1 87 0.139893 0.459943 0 0 -0.254544 -0.0862416 -0.10927 -0.0213806 0 0 0.316535 0 0 
88 1 88 0.139892 0.499949 0 0 -0.271803 -0.0899916 -0.116015 -0.0274654 0 0 0.808737 0 0 
89 1 89 0.139889 0.539956 0 0 -0.277273 -0.0729971 -0.112314 -0.0250225 0 0 1.33062 0 0 
90 1 90 0.139886 0.579967 0 0 -0.288396 -0.0690367 -0.114611 -0.0211454 0 0 1.15913 0 0 
91 1 91 0.139885 0.61998 0 0 -0.294757 -0.049103 -0.110257 -0.018151 0 0 1.58589 0 0 
92 1 92 0.139884 0.659997 0 0 -0.320971 -0.0471 -0.118029 -0.00611504 0 0 1.5385 0 0 
93 1 93 0.139877 0.700015 0 0 -0.345508 -0.0457736 -0.125484 -0.0016525 0 0 2.01711 0 0 
94 1 94 0.139864 0.740036 0 0 -0.360139 -0.0313325 -0.125545 0.0118328 0 0 1.82652 0 0 
95 1 95 0.139848 0.780058 0 0 -0.376346 -0.0318034 -0.130903 0.0159565 0 0 1.87352 0 0 
96 1 96 0.139831 0.820083 0 0 -0.385834 -0.0181174 -0.129551 0.0395998 0 0 1.27732 0 0 
97 1 97 0.139816 0.860111 0 0 -0.411227 -0.0121892 -0.135801 0.036252 0 0 1.55757 0 0 
98 1 98 0.139797 0.900142 0 0 -0.415609 0.00376317 -0.13208 0.0416591 0 0 0.845423 0 0 
99 1 99 0.139776 0.940173 0 0 -0.40846 -0.0015049 -0.131491 0.0199908 0 0 0.94341 0 0 
100 1 100 0.139746 0.980204 0 0 -0.381537 0.0116175 -0.118633 0.00626335 0 0 0.638907 0 0 
101 1 101 0.179987 0.0199911 0 0 -0.0772141 -0.149299 -0.0726049 -0.0505335 0 0 -0.132814 0 0 
102 1 102 0.179967 0.0599737 0 0 -0.0852057 -0.139971 -0.0721797 -0.0338443 0 0 -0.25851 0 0 
103 1 103 0.179957 0.0999592 0 0 -0.0903811 -0.127879 -0.069968 -0.030332 0 0 0.00846751 0 0 
104 1 104 0.179948 0.139947 0 0 -0.0987376 -0.113513 -0.0680358 -0.0300974 0 0 0.137738 0 0 
105 1 105 0.179938 0.179937 0 0 -0.112352 -0.103829 -0.0692926 -0.037584 0 0 0.524277 0 0 
106 1 106 0.179926 0.219931 0 0 -0.127976 -0.0901314 -0.0699062 -0.0382068 0 0 0.635631 0 0 
107 1 107 0.179912 0.259928 0 0 -0.147897 -0.0833205 -0.0741138 -0.0483415 0 0 1.19533 0 0 
108 1 108 0.179896 0.299926 0 0 -0.169572 -0.0782528 -0.0794486 -0.0407459 0 0 1.05631 0 0 
109 1 109 0.17988 0.339928 0 0 -0.199889 -0.0822227 -0.0904535 -0.046917 0 0 0.917898 0 0 
110 1 110 0.179866 0.37993 0 0 -0.221109 -0.0833404 -0.0976162 -0.0270512 0 0 0.329325 0 0 
111 1 111 0.179856 0.419935 0 0 -0.239183 -0.0856633 -0.104155 -0.028308 0 0 0.25915 0 0 
112 1 112 0.179846 0.45994 0 0 -0.252527 -0.0832297 -0.107656 -0.0180544 0 0 -0.0341397 0 0 
113 1 113 0.179836 0.499947 0 0 -0.260335 -0.0742208 -0.107273 -0.0256147 0 0 -0.0354691 0 0 
114 1 114 0.179823 0.539956 0 0 -0.266265 -0.0627177 -0.105482 -0.0214938 0 0 0.165575 0 0 
115 1 115 0.179809 0.579968 0 0 -0.272609 -0.0394922 -0.100065 -0.0204364 0 0 0.390571 0 0 
116 1 116 0.179793 0.619983 0 0 -0.28765 -0.0320117 -0.102493 -0.0125361 0 0 0.742339 0 0 
117 1 117 0.179777 0.660002 0 0 -0.278068 0.00809592 -0.0865469 -0.00388452 0 0 -0.00456201 0 0 
118 1 118 0.179764 0.700025 0 0 -0.299377 0.00532942 -0.0942772 0.000135614 0 0 -0.457578 0 0 
119 1 119 0.179755 0.74005 0 0 -0.320002 0.0212833 -0.0957746 0.00929062 0 0 -1.10573 0 0 
120 1 120 0.179746 0.780079 0 0 -0.351589 0.0120802 -0.108868 0.0130918 0 0 -0.637118 0 0 
121 1 121 0.179738 0.820108 0 0 -0.384069 0.00939507 -0.120152 0.0289519 0 0 -0.543214 0 0 
122 1 122 0.179729 0.86014 0 0 -0.399528 0.0142241 -0.123561 0.021171 0 0 0.236468 0 0 
123 1 123 0.179717 0.900172 0 0 -0.40396 0.00664979 -0.127414 0.0342028 0 0 -0.165813 0 0 
124 1 124 0.179702 0.940204 0 0 -0.392805 0.0100525 -0.122763 0.0121221 0 0 0.0449972 0 0 
125 1 125 0.17968 0.980234 0 0 -0.357764 0.00616514 -0.11276 0.00525885 0 0 -0.158144 0 0 
126 1 126 0.219989 0.0199904 0 0 -0.0750599 -0.15412 -0.0734614 -0.0523629 0 0 -0.0252814 0 0 
127 1 127 0.219971 0.0599718 0 0 -0.0793382 -0.148249 -0.072949 -0.0343474 0 0 -0.159697 0 0 
128 1 128 0.219955 0.0999555 0 0 -0.0853423 -0.133526 -0.0701574 -0.0319202 0 0 -0.0299278 0 0 
129 1 129 0.219942 0.139942 0 0 -0.105894 -0.127689 -0.0748776 -0.0352647 0 0 0.0833743 0 0 
130 1 130 0.219929 0.179931 0 0 -0.121889 -0.109457 -0.0741571 -0.0402615 0 0 0.56215 0 0 
131 1 131 0.219914 0.219925 0 0 -0.139666 -0.094386 -0.0750192 -0.0454255 0 0 0.890854 0 0 
132 1 132 0.219896 0.259922 0 0 -0.159738 -0.083331 -0.0779113 -0.0530355 0 0 1.24949 0 0 
133 1 133 0.219876 0.299921 0 0 -0.179173 -0.0812565 -0.0834888 -0.0470652 0 0 1.07838 0 0 
134 1 134 0.219857 0.339923 0 0 -0.196135 -0.0748443 -0.0868808 -0.0523965 0 0 1.13427 0 0 
135 1 135 0.219841 0.379926 0 0 -0.218057 -0.0804763 -0.0957217 -0.0296813 0 0 0.609307 0 0 
136 1 136 0.219831 0.41993 0 0 -0.238476 -0.0788015 -0.101732 -0.0304309 0 0 0.663394 0 0 
137 1 137 0.219824 0.459936 0 0 -0.25614 -0.0775078 -0.106987 -0.0139061 0 0 0.540186 0 0 
138 1 138 0.219818 0.499944 0 0 -0.269855 -0.0694969 -0.10882 -0.0212248 0 0 1.29841 0 0 
139 1 139 0.21981 0.539955 0 0 -0.284342 -0.0594061 -0.110227 -0.0136468 0 0 1.70356 0 0 
140 1 140 0.219803 0.579969 0 0 -0.286013 -0.0317366 -0.101882 -0.0157355 0 0 1.83869 0 0 
141 1 141 0.219796 0.619988 0 0 -0.30535 -0.01706 -0.103379 -0.0123474 0 0 2.23251 0 0 
142 1 142 0.219787 0.660012 0 0 -0.3337 -0.000566709 -0.107182 -0.00375465 0 0 2.17093 0 0 
143 1 143 0.219773 0.700039 0 0 -0.35879 0.0101464 -0.111798 -0.00763896 0 0 2.90407 0 0 
144 1 144 0.219752 0.74007 0 0 -0.376713 0.0120714 -0.116932 0.00489662 0 0 2.34651 0 0 
145 1 145 0.21973 0.7801 0 0 -0.379371 0.0222846 -0.114506 0.00364168 0 0 2.28329 0 0 
146 1 146 0.219707 0.820133 0 0 -0.386498 0.0204609 -0.117376 0.0140663 0 0 1.75032 0 0 
147 1 147 0.219686 0.860165 0 0 -0.388359 0.0182553 -0.118682 0.0104534 0 0 1.76543 0 0 
148 1 148 0.219667 0.900198 0 0 -0.384577 0.0189547 -0.117239 0.0166582 0 0 1.08817 0 0 
149 1 149 0.219649 0.940229 0 0 -0.377492 0.00723971 -0.118749 0.00320367 0 0 1.20101 0 0 
150 1 150 0.219628 0.980258 0 0 -0.355339 0.00521254 -0.112288 0.00444954 0 0 0.880778 0 0 
151 1 151 0.259986 0.0199905 0 0 -0.0680029 -0.151696 -0.0704233 -0.0515362 0 0 -0.104393 0 0 
152 1 152 0.259964 0.0599714 0 0 -0.0750429 -0.153263 -0.0731782 -0.0376031 0 0 -0.368269 0 0 
153 1 153 0.259949 0.0999537 0 0 -0.0930033 -0.147659 -0.0771447 -0.0361506 0 0 -0.0858355 0 0 
154 1 154 0.259934 0.139938 0 0 -0.111429 -0.135882 -0.0792779 -0.0420689 0 0 0.223234 0 0 
155 1 155 0.259915 0.179928 0 0 -0.131147 -0.116833 -0.0794919 -0.0448394 0 0 0.605106 0 0 
156 1 156 0.259896 0.219921 0 0 -0.152497 -0.100218 -0.081005 -0.0517253 0 0 0.899323 0 0 
157 1 157 0.259873 0.259918 0 0 -0.173511 -0.0893535 -0.0842594 -0.0582586 0 0 1.25739 0 0 
158 1 158 0.259851 0.299918 0 0 -0.191767 -0.0814564 -0.0875886 -0.0522323 0 0 1.2393 0 0 
159 1 159 0.259827 0.339921 0 0 -0.208635 -0.0778938 -0.091863 -0.0566674 0 0 1.23842 0 0 
160 1 160 0.259808 0.379925 0 0 -0.222666 -0.0759559 -0.0957476 -0.0328319 0 0 0.595616 0 0 
161 1 161 0.259791 0.419931 0 0 -0.238798 -0.06967 -0.0989075 -0.0359497 0 0 0.745522 0 0 
162 1 162 0.259776 0.459939 0 0 -0.255906 -0.0664173 -0.103358 -0.0159374 0 0 0.307836 0 0 
163 1 163 0.259761 0.49995 0 0 -0.25699 -0.0481224 -0.0978374 -0.0234756 0 0 0.63822 0 0 
164 1 164 0.259743 0.539962 0 0 -0.265698 -0.0361143 -0.096773 -0.0156923 0 0 0.908655 0 0 
165 1 165 0.259723 0.579979 0 0 -0.277873 -0.0107206 -0.0925278 -0.0156972 0 0 1.23407 0 0 
166 1 166 0.259699 0.62 0 0 -0.288721 0.00866259 -0.0897879 -0.0124234 0 0 1.56401 0 0 
167 1 167 0.259676 0.660025 0 0 -0.286551 0.0419282 -0.0784163 -0.00231023 0 0 0.675518 0 0 
168 1 168 0.259656 0.700054 0 0 -0.293177 0.0544405 -0.0765272 -0.00572587 0 0 0.287149 0 0 
169 1 169 0.25964 0.740087 0 0 -0.302893 0.0651049 -0.0762233 0.00280169 0 0 -0.436819 0 0 
170 1 170 0.259626 0.78012 0 0 -0.335976 0.042268 -0.0941644 -0.00170712 0 0 -0.0202778 0 0 
171 1 171 0.259614 0.820153 0 0 -0.354686 0.0396261 -0.101011 0.00484291 0 0 -0.00623553 0 0 
172 1 172 0.259602 0.860185 0 0 -0.368213 0.0186534 -0.112089 0.00307924 0 0 0.367998 0 0 
173 1 173 0.259591 0.900216 0 0 -0.368117 0.0170267 -0.112575 0.00781862 0 0 0.116805 0 0 
174 1 174 0.259579 0.940246 0 0 -0.361478 0.0141048 -0.111404 -0.00209006 0 0 0.431883 0 0 
175 1 175 0.259566 0.980275 0 0 -0.331336 0.0101382 -0.103 0.00396425 0 0 0.183973 0 0 
176 1 176 0.29999 0.0199904 0 0 -0.0678278 -0.151272 -0.0702318 -0.0490847 0 0 -0.0150808 0 0 
177 1 177 0.299969 0.0599708 0 0 -0.0739834 -0.156834 -0.0739866 -0.0432193 0 0 -0.301325 0 0 
178 1 178 0.299948 0.0999521 0 0 -0.0934195 -0.156992 -0.0802713 -0.0428296 0 0 -0.0908235 0 0 
179 1 179 0.299927 0.139936 0 0 -0.11362 -0.137602 -0.0805305 -0.0497692 0 0 0.180044 0 0 
180 1 180 0.299904 0.179925 0 0 -0.145938 -0.126862 -0.0874549 -0.0537635 0 0 0.582309 0 0 
181 1 181 0.29988 0.219917 0 0 -0.173092 -0.109821 -0.0906953 -0.0580207 0 0 0.888728 0 0 
182 1 182 0.299853 0.259915 0 0 -0.189472 -0.093801 -0.0908081 -0.0599863 0 0 1.25277 0 0 
183 1 183 0.299828 0.299916 0 0 -0.199482 -0.0801515 -0.0896419 -0.0511792 0 0 1.33485 0 0 
184 1 184 0.299803 0.339919 0 0 -0.207716 -0.0698144 -0.0889689 -0.0537977 0 0 1.40309 0 0 
185 1 185 0.299781 0.379924 0 0 -0.224474 -0.0714961 -0.0948884 -0.0295549 0 0 0.923481 0 0 
186 1 186 0.299765 0.419931 0 0 -0.233839 -0.0533656 -0.0920809 -0.0337419 0 0 1.23385 0 0 
187 1 187 0.299752 0.459941 0 0 -0.254016 -0.0554812 -0.0992416 -0.0104997 0 0 1.06869 0 0 
188 1 188 0.299741 0.499953 0 0 -0.269576 -0.0358464 -0.0979383 -0.0182408 0 0 1.85332 0 0 
189 1 189 0.299727 0.539968 0 0 -0.292321 -0.0362478 -0.105361 -0.0122568 0 0 2.38308 0 0 
190 1 190 0.299714 0.579988 0 0 -0.294197 -0.00380199 -0.095545 -0.0173294 0 0 2.54045 0 0 
191 1 191 0.299699 0.620012 0 0 -0.313757 0.00730645 -0.0982562 -0.0195276 0 0 2.93534 0 0 
192 1 192 0.299683 0.66004 0 0 -0.341689 0.0264277 -0.101082 -0.0175789 0 0 3.15856 0 0 
193 1 193 0.299662 0.700071 0 0 -0.3754 0.023 -0.113002 -0.0215095 0 0 3.70879 0 0 
194 1 194 0.299636 0.740105 0 0 -0.382293 0.0283667 -0.113492 -0.0120175 0 0 3.02283 0 0 
195 1 195 0.29961 0.780137 0 0 -0.374153 0.0258318 -0.111692 -0.0181889 0 0 2.90291 0 0 
196 1 196 0.299584 0.82017 0 0 -0.366214 0.022542 -0.110194 -0.0088486 0 0 2.04804 0 0 
197 1 197 0.299563 0.8602 0 0 -0.363589 0.0131929 -0.112359 -0.0104276 0 0 1.82363 0 0 
198 1 198 0.299545 0.90023 0 0 -0.361592 0.0127086 -0.111869 -0.00696868 0 0 1.40214 0 0 
199 1 199 0.29953 0.940258 0 0 -0.36023 0.00566405 -0.113712 -0.00967298 0 0 1.41616 0 0 
200 1 200 0.299518 0.980286 0 0 -0.343752 0.00258992 -0.109405 0.00193249 0 0 1.05217 0 0 
201 1 201 0.339988 0.0199907 0 0 -0.0629362 -0.148811 -0.0678733 -0.0454541 0 0 -0.158885 0 0 
202 1 202 0.339964 0.0599708 0 0 -0.0684458 -0.157341 -0.0723735 -0.0486123 0 0 -0.448903 0 0 
203 1 203 0.339942 0.0999519 0 0 -0.0935277 -0.157259 -0.0803922 -0.0500658 0 0 0.0234393 0 0 
204 1 204 0.339918 0.139936 0 0 -0.121656 -0.142275 -0.0846083 -0.0581705 0 0 0.24666 0 0 
205 1 205 0.339888 0.179925 0 0 -0.153148 -0.129325 -0.0905596 -0.0623677 0 0 0.63573 0 0 
206 1 206 0.339858 0.219917 0 0 -0.176016 -0.109504 -0.091535 -0.0615076 0 0 0.999254 0 0 
207 1 207 0.339827 0.259916 0 0 -0.187979 -0.0842967 -0.087282 -0.0599053 0 0 1.27303 0 0 
208 1 208 0.339799 0.299918 0 0 -0.207462 -0.0818067 -0.0927329 -0.0509782 0 0 1.3263 0 0 
209 1 209 0.339771 0.339922 0 0 -0.210733 -0.0609951 -0.0871069 -0.0514353 0 0 1.39255 0 0 
210 1 210 0.339746 0.379929 0 0 -0.224718 -0.0643126 -0.0926578 -0.0305376 0 0 0.971374 0 0 
211 1 211 0.339724 0.419938 0 0 -0.231663 -0.0413039 -0.0875076 -0.0340854 0 0 1.16246 0 0 
212 1 212 0.339702 0.459949 0 0 -0.251147 -0.0443439 -0.0947403 -0.015799 0 0 0.819162 0 0 
213 1 213 0.339681 0.499964 0 0 -0.252411 -0.0158048 -0.0859935 -0.0246585 0 0 1.10908 0 0 
214 1 214 0.339658 0.539982 0 0 -0.264266 -0.011866 -0.0885293 -0.0200377 0 0 1.49309 0 0 
215 1 215 0.339632 0.580002 0 0 -0.278893 0.0104894 -0.0860472 -0.0260884 0 0 2.01634 0 0 
216 1 216 0.3396 0.620026 0 0 -0.292927 0.0242616 -0.0861327 -0.0256447 0 0 2.2828 0 0 
217 1 217 0.339569 0.660053 0 0 -0.28714 0.0514921 -0.0755385 -0.0228441 0 0 1.66843 0 0 
218 1 218 0.339543 0.700084 0 0 -0.279392 0.0693402 -0.0673285 -0.0241002 0 0 1.15254 0 0 
219 1 219 0.339523 0.740117 0 0 -0.290139 0.0658119 -0.0719063 -0.0164785 0 0 0.370996 0 0 
220 1 220 0.339508 0.780149 0 0 -0.31661 0.0452885 -0.0869818 -0.0225893 0 0 0.610544 0 0 
221 1 221 0.339495 0.82018 0 0 -0.330857 0.0310115 -0.0961309 -0.0170602 0 0 0.358297 0 0 
222 1 222 0.339484 0.860209 0 0 -0.347787 0.0098049 -0.108379 -0.016539 0 0 0.63004 0 0 
223 1 223 0.339473 0.900237 0 0 -0.350532 0.01239 -0.108427 -0.0152805 0 0 0.567843 0 0 
224 1 224 0.339463 0.940265 0 0 -0.346362 0.00429404 -0.1097 -0.0130212 0 0 0.783389 0 0 
225 1 225 0.339458 0.980292 0 0 -0.324286 0.00788689 -0.101455 0.00282715 0 0 0.494821 0 0 
226 1 226 0.379991 0.0199906 0 0 -0.072228 -0.152749 -0.0721148 -0.0428142 0 0 -0.116982 0 0 
227 1 227 0.37997 0.0599707 0 0 -0.0816419 -0.161545 -0.0779533 -0.0514619 0 0 -0.396844 0 0 
228 1 228 0.379942 0.0999528 0 0 -0.0965178 -0.150608 -0.0792174 -0.0565428 0 0 0.0438023 0 0 
229 1 229 0.379909 0.139937 0 0 -0.124965 -0.141971 -0.0855728 -0.0642446 0 0 0.262012 0 0 
230 1 230 0.379875 0.179927 0 0 -0.152222 -0.121477 -0.0877454 -0.0664446 0 0 0.734542 0 0 
231 1 231 0.37984 0.219921 0 0 -0.179602 -0.107536 -0.092058 -0.0611168 0 0 1.04634 0 0 
232 1 232 0.379805 0.25992 0 0 -0.193372 -0.0820613 -0.0883002 -0.0582372 0 0 1.29577 0 0 
233 1 233 0.379773 0.299922 0 0 -0.210011 -0.0785509 -0.0925111 -0.0482758 0 0 1.40577 0 0 
234 1 234 0.379745 0.339927 0 0 -0.206893 -0.0551279 -0.0839972 -0.0441506 0 0 1.51225 0 0 
235 1 235 0.37972 0.379934 0 0 -0.216723 -0.051067 -0.0858447 -0.0310786 0 0 1.41151 0 0 
236 1 236 0.379697 0.419944 0 0 -0.225776 -0.0331863 -0.0830134 -0.032977 0 0 1.45618 0 0 
237 1 237 0.379678 0.459956 0 0 -0.246256 -0.0360275 -0.0904966 -0.0175558 0 0 1.47996 0 0 
238 1 238 0.379661 0.499972 0 0 -0.262981 -0.0120116 -0.0881603 -0.0258031 0 0 2.28188 0 0 
239 1 239 0.379641 0.53999 0 0 -0.2896 -0.0205853 -0.0994512 -0.0220604 0 0 2.66742 0 0 
240 1 240 0.379621 0.580011 0 0 -0.292426 0.00849203 -0.0910281 -0.0361783 0 0 3.06136 0 0 
241 1 241 0.379598 0.620036 0 0 -0.317193 0.010658 -0.0982862 -0.0394873 0 0 3.31874 0 0 
242 1 242 0.379576 0.660065 0 0 -0.351774 0.0169584 -0.10736 -0.0436868 0 0 3.88255 0 0 
243 1 243 0.379549 0.700095 0 0 -0.385123 0.0105472 -0.120123 -0.0416789 0 0 4.3989 0 0 
244 1 244 0.379521 0.740127 0 0 -0.389337 0.0126215 -0.120807 -0.0354303 0 0 3.92943 0 0 
245 1 245 0.379494 0.780157 0 0 -0.377561 0.00710188 -0.1188 -0.0345996 0 0 3.5286 0 0 
246 1 246 0.379469 0.820187 0 0 -0.363561 0.00655262 -0.114481 -0.0273737 0 0 2.50435 0 0 
247 1 247 0.379448 0.860214 0 0 -0.361163 -0.000561589 -0.116004 -0.0289109 0 0 2.22541 0 0 
248 1 248 0.37943 0.900242 0 0 -0.35469 0.00142334 -0.113287 -0.0220485 0 0 1.59926 0 0 
249 1 249 0.379416 0.940268 0 0 -0.3532 -0.00580548 -0.11514 -0.0190636 0 0 1.59227 0 0 
250 1 250 0.37941 0.980294 0 0 -0.348103 -0.00436767 -0.113033 0.000100378 0 0 1.23302 0 0 
251 1 251 0.419988 0.0199908 0 0 -0.0713329 -0.151447 -0.0714093 -0.0428301 0 0 -0.144436 0 0 
252 1 252 0.419963 0.0599719 0 0 -0.0824628 -0.152033 -0.0751634 -0.0559373 0 0 -0.393037 0 0 
253 1 253 0.419934 0.0999558 0 0 -0.106018 -0.142325 -0.0796072 -0.0642339 0 0 0.162595 0 0 
254 1 254 0.419898 0.139942 0 0 -0.133915 -0.136783 -0.0867808 -0.069815 0 0 0.317523 0 0 
255 1 255 0.419857 0.179933 0 0 -0.152908 -0.113729 -0.0854812 -0.0731382 0 0 0.747584 0 0 
256 1 256 0.419817 0.219928 0 0 -0.175519 -0.100506 -0.0884941 -0.0654482 0 0 1.07939 0 0 
257 1 257 0.419779 0.259928 0 0 -0.183795 -0.0785721 -0.0841105 -0.0595865 0 0 1.29452 0 0 
258 1 258 0.419744 0.29993 0 0 -0.192625 -0.0662415 -0.0829871 -0.0509537 0 0 1.44764 0 0 
259 1 259 0.419713 0.339936 0 0 -0.197376 -0.0506591 -0.0795125 -0.0442499 0 0 1.47558 0 0 
260 1 260 0.419685 0.379943 0 0 -0.209392 -0.04817 -0.0825658 -0.0395031 0 0 1.42603 0 0 
261 1 261 0.419657 0.419954 0 0 -0.216614 -0.0266188 -0.077969 -0.0433346 0 0 1.34793 0 0 
262 1 262 0.419629 0.459967 0 0 -0.237567 -0.0308182 -0.0860378 -0.0336159 0 0 1.19859 0 0 
263 1 263 0.419601 0.499983 0 0 -0.240874 -0.000354847 -0.077327 -0.0453774 0 0 1.36882 0 0 
264 1 264 0.419571 0.540001 0 0 -0.263933 -0.00808147 -0.0872019 -0.0420837 0 0 1.39165 0 0 
265 1 265 0.419538 0.580022 0 0 -0.280416 0.0158069 -0.084826 -0.0549157 0 0 2.29863 0 0 
266 1 266 0.419499 0.620046 0 0 -0.296523 0.0173598 -0.0895019 -0.0517754 0 0 2.56948 0 0 
267 1 267 0.419462 0.660073 0 0 -0.281744 0.0444106 -0.076081 -0.0508212 0 0 2.2261 0 0 
268 1 268 0.419431 0.700101 0 0 -0.269025 0.0548722 -0.0686443 -0.0431784 0 0 1.61573 0 0 
269 1 269 0.41941 0.740131 0 0 -0.278967 0.0543333 -0.0720031 -0.0393226 0 0 1.10862 0 0 
270 1 270 0.419394 0.78016 0 0 -0.303966 0.038019 -0.0852603 -0.035098 0 0 1.14978 0 0 
271 1 271 0.419382 0.820189 0 0 -0.31887 0.0233907 -0.0947359 -0.0297455 0 0 0.949322 0 0 
272 1 272 0.41937 0.860216 0 0 -0.335781 0.00731851 -0.10533 -0.0300159 0 0 1.2122 0 0 
273 1 273 0.41936 0.900243 0 0 -0.337826 0.00533775 -0.106621 -0.0211369 0 0 0.871493 0 0 
274 1 274 0.419352 0.940269 0 0 -0.339369 -0.0050062 -0.110446 -0.0176045 0 0 1.19976 0 0 
275 1 275 0.419349 0.980295 0 0 -0.332139 0.00535632 -0.104788 0.00397685 0 0 0.665026 0 0 
276 1 276 0.45999 0.0199911 0 0 -0.0864862 -0.15465 -0.0772993 -0.0462754 0 0 0.00248591 0 0 
277 1 277 0.459965 0.0599733 0 0 -0.104234 -0.148891 -0.0811401 -0.0598435 0 0 -0.236627 0 0 
278 1 278 0.459929 0.0999597 0 0 -0.114501 -0.130074 -0.0783994 -0.0716705 0 0 0.200641 0 0 
279 1 279 0.459887 0.139948 0 0 -0.137515 -0.127683 -0.0850182 -0.0761588 0 0 0.397875 0 0 
280 1 280 0.459843 0.179941 0 0 -0.149916 -0.104334 -0.0815075 -0.080244 0 0 0.878947 0 0 
281 1 281 0.459799 0.219936 0 0 -0.167443 -0.0948747 -0.0840951 -0.071514 0 0 1.11012 0 0 
282 1 282 0.459758 0.259936 0 0 -0.177797 -0.0767502 -0.0816015 -0.063523 0 0 1.24076 0 0 
283 1 283 0.459721 0.299937 0 0 -0.186712 -0.0685545 -0.0818312 -0.0555539 0 0 1.47099 0 0 
284 1 284 0.459689 0.339943 0 0 -0.189183 -0.0487613 -0.0762739 -0.0507568 0 0 1.59606 0 0 
285 1 285 0.459659 0.379949 0 0 -0.212527 -0.0560482 -0.086099 -0.0495625 0 0 1.69386 0 0 
286 1 286 0.459631 0.419958 0 0 -0.215122 -0.0290403 -0.0782658 -0.0493173 0 0 1.65992 0 0 
287 1 287 0.459606 0.45997 0 0 -0.238536 -0.0333911 -0.0871768 -0.0464023 0 0 1.97404 0 0 
288 1 288 0.459581 0.499985 0 0 -0.264157 -0.0174716 -0.0902927 -0.0548458 0 0 2.48488 0 0 
289 1 289 0.459554 0.540003 0 0 -0.290432 -0.0190462 -0.0992244 -0.0532865 0 0 2.70944 0 0 
290 1 290 0.459526 0.580025 0 0 -0.298799 0.00478122 -0.0942618 -0.0699209 0 0 3.25626 0 0 
291 1 291 0.459498 0.620049 0 0 -0.321696 -0.00083071 -0.103415 -0.0699847 0 0 3.4147 0 0 
292 1 292 0.459469 0.660076 0 0 -0.358518 0.00258137 -0.114139 -0.0783347 0 0 4.30254 0 0 
293 1 293 0.459439 0.700104 0 0 -0.404804 -0.0192739 -0.136016 -0.0657502 0 0 4.70047 0 0 
294 1 294 0.459409 0.740132 0 0 -0.406116 -0.0105891 -0.133645 -0.0607188 0 0 4.56677 0 0 
295 1 295 0.45938 0.780161 0 0 -0.391375 -0.00714292 -0.12781 -0.0468497 0 0 3.82429 0 0 
296 1 296 0.459357 0.82019 0 0 -0.373591 0.000529816 -0.119635 -0.0416317 0 0 2.96817 0 0 
297 1 297 0.459335 0.860217 0 0 -0.366641 -0.00436192 -0.118983 -0.0392396 0 0 2.71231 0 0 
298 1 298 0.459318 0.900244 0 0 -0.352436 -0.000375762 -0.113144 -0.020746 0 0 1.77061 0 0 
299 1 299 0.459306 0.94027 0 0 -0.35079 -0.00596595 -0.114418 -0.0198606 0 0 2.05518 0 0 
300 1 300 0.459299 0.980296 0 0 -0.356482 -0.00379181 -0.115537 0.00552744 0 0 1.32471 0 0 
301 1 301 0.499985 0.0199917 0 0 -0.0827576 -0.147103 -0.0736828 -0.0558386 0 0 0.0274916 0 0 
302 1 302 0.499953 0.0599756 0 0 -0.106584 -0.136003 -0.0777608 -0.0683866 0 0 -0.197408 0 0 
303 1 303 0.499916 0.0999643 0 0 -0.126974 -0.120906 -0.0794612 -0.0810858 0 0 0.324138 0 0 
304 1 304 0.499873 0.139955 0 0 -0.1448 -0.118533 -0.0844204 -0.0835612 0 0 0.48961 0 0 
305 1 305 0.499825 0.179949 0 0 -0.150263 -0.0982932 -0.0796811 -0.0876947 0 0 0.802136 0 0 
306 1 306 0.499777 0.219945 0 0 -0.163846 -0.0959706 -0.0832931 -0.0798647 0 0 1.03836 0 0 
307 1 307 0.499734 0.259944 0 0 -0.166595 -0.0761575 -0.0778156 -0.0726759 0 0 1.22693 0 0 
308 1 308 0.499695 0.299945 0 0 -0.180476 -0.0753093 -0.0819948 -0.0662056 0 0 1.30608 0 0 
309 1 309 0.499659 0.339949 0 0 -0.184351 -0.0565574 -0.0772217 -0.0623996 0 0 1.38934 0 0 
310 1 310 0.499626 0.379954 0 0 -0.195792 -0.0533597 -0.0798642 -0.0673679 0 0 1.79171 0 0 
311 1 311 0.499592 0.419963 0 0 -0.209444 -0.0375855 -0.0791844 -0.0672861 0 0 1.59926 0 0 
312 1 312 0.499558 0.459973 0 0 -0.234539 -0.0373247 -0.0871577 -0.0738136 0 0 1.7887 0 0 
313 1 313 0.499521 0.499988 0 0 -0.240606 -0.0132339 -0.0813782 -0.0797845 0 0 1.78489 0 0 
314 1 314 0.499484 0.540005 0 0 -0.256311 -0.00604576 -0.0841059 -0.0815923 0 0 1.7982 0 0 
315 1 315 0.499443 0.580026 0 0 -0.284847 0.00801707 -0.0887467 -0.0973764 0 0 2.7217 0 0 
316 1 316 0.499398 0.620048 0 0 -0.308667 -0.000412897 -0.0990972 -0.084789 0 0 2.58049 0 0 
317 1 317 0.499355 0.660073 0 0 -0.282705 0.0342378 -0.0796494 -0.0887734 0 0 2.45707 0 0 
318 1 318 0.49932 0.700099 0 0 -0.267217 0.0393792 -0.0730329 -0.069006 0 0 1.57506 0 0 
319 1 319 0.499297 0.740127 0 0 -0.271317 0.0530006 -0.0699766 -0.0660265 0 0 1.33863 0 0 
320 1 320 0.49928 0.780156 0 0 -0.303258 0.0358952 -0.0857153 -0.0492467 0 0 1.25093 0 0 
321 1 321 0.499268 0.820185 0 0 -0.317065 0.034955 -0.0904433 -0.0422882 0 0 1.29234 0 0 
322 1 322 0.499257 0.860215 0 0 -0.326996 0.0245858 -0.0969648 -0.0376382 0 0 1.56464 0 0 
323 1 323 0.499248 0.900244 0 0 -0.329781 0.0221386 -0.098643 -0.0175002 0 0 1.02271 0 0 
324 1 324 0.499242 0.940272 0 0 -0.337709 0.00895174 -0.105427 -0.0180231 0 0 1.66729 0 0 
325 1 325 0.499237 0.980299 0 0 -0.335351 0.011708 -0.103777 0.00829158 0 0 0.693505 0 0 
326 1 326 0.539985 0.019992 0 0 -0.0953088 -0.147883 -0.0779594 -0.0687908 0 0 0.252915 0 0 
327 1 327 0.53995 0.0599773 0 0 -0.124749 -0.130462 -0.0818125 -0.0774844 0 0 0.133372 0 0 