ITEM: TIMESTEP
0
ITEM: NUMBER OF ATOMS
6875
ITEM: BOX BOUNDS sm sm sm
0 4
0 2
0 0
ITEM: ATOMS id type tag x y z damage s11 s22 s33 s12 s13 s23 vx T ienergy 
1 1 1 0.0199983 0.0200007 0 0 0.00308085 0.00631944 0.00302057 0.00168072 0 0 0.159196 0 0 
2 1 2 0.0199977 0.0600012 0 0 0.00425865 0.00793017 0.00392196 0.00540505 0 0 0.162834 0 0 
3 1 3 0.019997 0.100002 0 0 -0.0198985 -0.00744713 -0.0087484 0.00211202 0 0 0.0848639 0 0 
4 1 4 0.0199963 0.140002 0 0 -0.0565702 -0.0270818 -0.0267956 0.00503682 0 0 0.105241 0 0 
5 1 5 0.019994 0.180002 0 0 -0.0805042 -0.0400297 -0.0386158 0.00507648 0 0 0.104108 0 0 
6 1 6 0.0199934 0.220001 0 0 -0.094463 -0.0472634 -0.0454092 0.0050769 0 0 0.125227 0 0 
7 1 7 0.0199924 0.260001 0 0 -0.104277 -0.0536872 -0.0506149 0.00230785 0 0 0.0527002 0 0 
8 1 8 0.0199926 0.300001 0 0 -0.104756 -0.0502623 -0.0496677 0.002423 0 0 0.0628155 0 0 
9 1 9 0.019992 0.340001 0 0 -0.0998854 -0.0477652 -0.0473046 0.0019639 0 0 0.0931012 0 0 
10 1 10 0.0199916 0.380001 0 0 -0.0991039 -0.0390075 -0.0442443 0.0019412 0 0 0.0903226 0 0 
11 1 11 0.0199891 0.420003 0 0 -0.110778 -0.0457821 -0.0501592 0.00746369 0 0 0.0309541 0 0 
12 1 12 0.0199858 0.460004 0 0 -0.124148 -0.0440879 -0.0539051 0.0119494 0 0 0.0242396 0 0 
13 1 13 0.01998 0.500007 0 0 -0.151187 -0.0621388 -0.0683671 0.0211401 0 0 -0.211055 0 0 
14 1 14 0.0199756 0.540008 0 0 -0.17501 -0.0723431 -0.0792844 0.0264187 0 0 -0.385189 0 0 
15 1 15 0.0199688 0.58001 0 0 -0.205159 -0.0964391 -0.096691 0.0314266 0 0 -0.326439 0 0 
16 1 16 0.019961 0.620008 0 0 -0.233453 -0.106895 -0.109128 0.029718 0 0 -0.459331 0 0 
17 1 17 0.0199527 0.660009 0 0 -0.256377 -0.125445 -0.122442 0.0354252 0 0 -1.20163 0 0 
18 1 18 0.0199517 0.700007 0 0 -0.266775 -0.120345 -0.124144 0.0302016 0 0 -1.56188 0 0 
19 1 19 0.0199534 0.740009 0 0 -0.280025 -0.130503 -0.131659 0.0398002 0 0 -1.69182 0 0 
20 1 20 0.0199605 0.780009 0 0 -0.283285 -0.121359 -0.129769 0.0377648 0 0 -1.12689 0 0 
21 1 21 0.0199642 0.820012 0 0 -0.297669 -0.13106 -0.137501 0.0512736 0 0 -0.80319 0 0 
22 1 22 0.0199706 0.860013 0 0 -0.296822 -0.112656 -0.13132 0.0584011 0 0 -0.310106 0 0 
23 1 23 0.0199701 0.900021 0 0 -0.33253 -0.123537 -0.146279 0.0768104 0 0 -0.0822076 0 0 
24 1 24 0.0199719 0.940024 0 0 -0.363123 -0.13203 -0.158842 0.105208 0 0 -0.233539 0 0 
25 1 25 0.0199586 0.980042 0 0 -0.48686 -0.101033 -0.198617 0.107326 0 0 -0.243321 0 0 
26 1 26 0.0600012 0.0200012 0 0 0.00529704 0.0143761 0.00631439 0.000276932 0 0 0.298142 0 0 
27 1 27 0.0600023 0.0600021 0 0 -0.0121393 0.000259619 -0.00379407 -0.0035126 0 0 0.277009 0 0 
28 1 28 0.0599961 0.100003 0 0 -0.0315993 -0.00789179 -0.0126386 -0.0153194 0 0 0.260214 0 0 
29 1 29 0.0599908 0.140004 0 0 -0.046453 -0.0206204 -0.0214755 -0.0075172 0 0 0.302305 0 0 
30 1 30 0.0599866 0.180004 0 0 -0.062514 -0.028346 -0.0291045 -0.00576432 0 0 0.430007 0 0 
31 1 31 0.059985 0.220004 0 0 -0.0794693 -0.03812 -0.0376743 0.00333356 0 0 0.374081 0 0 
32 1 32 0.0599822 0.260004 0 0 -0.0926094 -0.0454852 -0.044249 0.00515329 0 0 0.274986 0 0 
33 1 33 0.0599822 0.300004 0 0 -0.0954782 -0.0409415 -0.0437085 0.0165487 0 0 0.207332 0 0 
34 1 34 0.059982 0.340005 0 0 -0.104858 -0.0453183 -0.0481198 0.0165044 0 0 0.2959 0 0 
35 1 35 0.0599819 0.380006 0 0 -0.11001 -0.0342822 -0.046231 0.017098 0 0 0.43006 0 0 
36 1 36 0.05998 0.420009 0 0 -0.12786 -0.0413548 -0.0542207 0.0169397 0 0 0.458204 0 0 
37 1 37 0.05998 0.460012 0 0 -0.140862 -0.0346307 -0.0562374 0.0184414 0 0 0.696515 0 0 
38 1 38 0.0599786 0.500017 0 0 -0.166837 -0.0540972 -0.0708123 0.0198896 0 0 0.860195 0 0 
39 1 39 0.0599787 0.54002 0 0 -0.183133 -0.063322 -0.0789988 0.0258581 0 0 0.775453 0 0 
40 1 40 0.0599788 0.580024 0 0 -0.205572 -0.0882732 -0.0942038 0.0270927 0 0 0.640985 0 0 
41 1 41 0.0599814 0.620025 0 0 -0.225049 -0.0998034 -0.104155 0.0278335 0 0 0.795731 0 0 
42 1 42 0.0599826 0.660027 0 0 -0.252814 -0.116137 -0.118309 0.0379618 0 0 0.965338 0 0 
43 1 43 0.0599809 0.700028 0 0 -0.277875 -0.123725 -0.128793 0.0350741 0 0 1.83168 0 0 
44 1 44 0.0599738 0.74003 0 0 -0.29003 -0.117386 -0.130659 0.0500789 0 0 1.54801 0 0 
45 1 45 0.0599667 0.780034 0 0 -0.297448 -0.118257 -0.13332 0.0471926 0 0 1.56563 0 0 
46 1 46 0.0599571 0.820039 0 0 -0.30356 -0.0976911 -0.128677 0.0583269 0 0 1.05985 0 0 
47 1 47 0.0599486 0.860047 0 0 -0.334474 -0.100316 -0.139454 0.0618895 0 0 0.820735 0 0 
48 1 48 0.0599384 0.900059 0 0 -0.335531 -0.0638096 -0.128059 0.0669924 0 0 0.881284 0 0 
49 1 49 0.0599256 0.940078 0 0 -0.411175 -0.0573754 -0.150294 0.0834536 0 0 0.580494 0 0 
50 1 50 0.0598963 0.980106 0 0 -0.37059 0.0366383 -0.107084 0.010736 0 0 0.866134 0 0 
51 1 51 0.0999979 0.0200004 0 0 -0.000322571 0.00577113 0.00174308 -0.00470589 0 0 0.106957 0 0 
52 1 52 0.0999945 0.0600014 0 0 -0.0122786 -0.00258389 -0.0047563 -0.0123381 0 0 0.0575894 0 0 
53 1 53 0.0999895 0.100002 0 0 -0.025185 -0.00223234 -0.0087707 -0.0222542 0 0 0.654302 0 0 
54 1 54 0.0999839 0.140004 0 0 -0.0405708 -0.00885929 -0.0158243 -0.0115484 0 0 0.608309 0 0 
55 1 55 0.0999771 0.180006 0 0 -0.0605772 -0.016855 -0.0248033 -0.0131592 0 0 0.555255 0 0 
56 1 56 0.0999719 0.220008 0 0 -0.0778034 -0.020637 -0.0315383 0.00375668 0 0 0.25887 0 0 
57 1 57 0.0999689 0.26001 0 0 -0.086862 -0.0285078 -0.0369673 0.00699177 0 0 0.364566 0 0 
58 1 58 0.0999672 0.300013 0 0 -0.0900462 -0.0229868 -0.036216 0.0220936 0 0 0.363641 0 0 
59 1 59 0.0999654 0.340016 0 0 -0.104656 -0.0353876 -0.0448764 0.018792 0 0 0.57023 0 0 
60 1 60 0.0999618 0.380019 0 0 -0.112163 -0.0262249 -0.0443423 0.0228156 0 0 0.720344 0 0 
61 1 61 0.0999555 0.420024 0 0 -0.13264 -0.0375284 -0.0545302 0.0175934 0 0 0.806947 0 0 
62 1 62 0.0999463 0.460029 0 0 -0.149943 -0.0318666 -0.0582659 0.0199885 0 0 0.825232 0 0 
63 1 63 0.0999358 0.500035 0 0 -0.172934 -0.0532609 -0.0725025 0.0186391 0 0 0.357035 0 0 
64 1 64 0.0999261 0.54004 0 0 -0.189809 -0.0557251 -0.0787044 0.0244677 0 0 0.0208265 0 0 
65 1 65 0.0999156 0.580044 0 0 -0.216367 -0.082291 -0.0957467 0.0259806 0 0 -0.254293 0 0 
66 1 66 0.0999021 0.620046 0 0 -0.231649 -0.0922734 -0.103857 0.0287789 0 0 -0.239144 0 0 
67 1 67 0.0998898 0.660048 0 0 -0.239616 -0.094557 -0.107146 0.0389422 0 0 -1.04471 0 0 
68 1 68 0.0998827 0.700051 0 0 -0.252579 -0.10114 -0.113422 0.0385159 0 0 -0.908082 0 0 
69 1 69 0.0998808 0.740055 0 0 -0.265781 -0.0930348 -0.115059 0.0535646 0 0 -1.3968 0 0 
70 1 70 0.0998831 0.780061 0 0 -0.290988 -0.0996114 -0.125263 0.0517438 0 0 -0.684278 0 0 
71 1 71 0.0998829 0.820069 0 0 -0.306401 -0.076219 -0.1227 0.0545376 0 0 -0.272789 0 0 
72 1 72 0.0998803 0.860081 0 0 -0.329074 -0.0758311 -0.129863 0.0549926 0 0 0.017947 0 0 
73 1 73 0.0998724 0.900098 0 0 -0.360108 -0.0439605 -0.129584 0.052011 0 0 0.315625 0 0 
74 1 74 0.0998562 0.940121 0 0 -0.365741 -0.0115778 -0.120999 0.0230219 0 0 0.255558 0 0 
75 1 75 0.0998314 0.980146 0 0 -0.348557 -0.0136244 -0.116143 0.0108123 0 0 0.584678 0 0 
76 1 76 0.140001 0.0199999 0 0 -0.00435274 -0.00415553 -0.00272616 -0.00370363 0 0 0.197553 0 0 
77 1 77 0.139998 0.06 0 0 -0.0112118 0.00215204 -0.00289597 -0.0117327 0 0 0.17078 0 0 
78 1 78 0.139988 0.100002 0 0 -0.0254324 0.00261015 -0.00730825 -0.0210387 0 0 0.768769 0 0 
79 1 79 0.139978 0.140005 0 0 -0.0431724 0.00152573 -0.013336 -0.00901834 0 0 0.547101 0 0 
80 1 80 0.13997 0.180009 0 0 -0.062747 -0.00636395 -0.0221363 -0.012031 0 0 0.659928 0 0 
81 1 81 0.139963 0.220013 0 0 -0.0698193 0.000793098 -0.0221089 0.0060666 0 0 0.521915 0 0 
82 1 82 0.139958 0.260018 0 0 -0.0885088 -0.0164348 -0.0336237 0.00708247 0 0 0.641387 0 0 
83 1 83 0.139956 0.300022 0 0 -0.0977855 -0.0118778 -0.0351395 0.0193942 0 0 0.541035 0 0 
84 1 84 0.139953 0.340028 0 0 -0.112824 -0.0256401 -0.0443746 0.0169685 0 0 0.88831 0 0 
85 1 85 0.139949 0.380032 0 0 -0.121746 -0.0199206 -0.045397 0.0187018 0 0 1.23755 0 0 
86 1 86 0.139943 0.420038 0 0 -0.144248 -0.0350941 -0.0574736 0.0155553 0 0 1.37002 0 0 
87 1 87 0.139936 0.460044 0 0 -0.159463 -0.030167 -0.060773 0.0169846 0 0 1.6963 0 0 
88 1 88 0.139931 0.50005 0 0 -0.187057 -0.0530117 -0.0769525 0.0244657 0 0 1.45435 0 0 
89 1 89 0.139926 0.540056 0 0 -0.19965 -0.0541126 -0.0813443 0.0260663 0 0 1.41147 0 0 
90 1 90 0.139922 0.580062 0 0 -0.219145 -0.0715684 -0.0931979 0.031886 0 0 0.722716 0 0 
91 1 91 0.139921 0.620067 0 0 -0.235522 -0.0830395 -0.102138 0.0285739 0 0 0.895983 0 0 
92 1 92 0.139918 0.660073 0 0 -0.266287 -0.0964029 -0.116301 0.0376778 0 0 1.14677 0 0 
93 1 93 0.139911 0.700078 0 0 -0.290162 -0.106677 -0.127268 0.032716 0 0 2.34526 0 0 
94 1 94 0.139899 0.740084 0 0 -0.300649 -0.102514 -0.129299 0.0468632 0 0 2.2022 0 0 
95 1 95 0.139886 0.780091 0 0 -0.315658 -0.0951437 -0.131754 0.0388349 0 0 2.26484 0 0 
96 1 96 0.13987 0.820102 0 0 -0.321848 -0.0768173 -0.127854 0.0432982 0 0 1.60777 0 0 
97 1 97 0.139854 0.860115 0 0 -0.333237 -0.0587922 -0.125724 0.03784 0 0 1.43201 0 0 
98 1 98 0.139833 0.900133 0 0 -0.338045 -0.0345535 -0.119479 0.0227896 0 0 1.39831 0 0 
99 1 99 0.13981 0.940154 0 0 -0.350724 -0.0285345 -0.121633 0.0167644 0 0 1.2387 0 0 
100 1 100 0.139782 0.980179 0 0 -0.34729 0.00576952 -0.109517 0.00239868 0 0 1.32726 0 0 
101 1 101 0.179997 0.0200003 0 0 -0.00725165 -0.00231733 -0.00305366 -0.00553254 0 0 0.0338058 0 0 
102 1 102 0.17999 0.0600014 0 0 -0.0197253 0.00677856 -0.00413933 -0.0136775 0 0 -0.0331259 0 0 
103 1 103 0.17998 0.100005 0 0 -0.0343983 0.00866608 -0.00824322 -0.0188456 0 0 0.728487 0 0 
104 1 104 0.17997 0.140009 0 0 -0.0453138 0.0100661 -0.0112879 -0.0087638 0 0 0.789599 0 0 
105 1 105 0.179958 0.180015 0 0 -0.0579475 0.00759384 -0.0161251 -0.00961161 0 0 0.960979 0 0 
106 1 106 0.179949 0.220021 0 0 -0.0686485 0.00631967 -0.0199584 0.00608294 0 0 0.652126 0 0 
107 1 107 0.179943 0.260027 0 0 -0.0835599 -0.00156277 -0.0272664 0.00486673 0 0 0.80137 0 0 
108 1 108 0.179938 0.300033 0 0 -0.097386 -0.00406452 -0.0325077 0.0162576 0 0 0.739218 0 0 
109 1 109 0.179933 0.340041 0 0 -0.114506 -0.00926488 -0.0396677 0.0132048 0 0 1.08929 0 0 
110 1 110 0.179926 0.380048 0 0 -0.133732 -0.0178627 -0.0485837 0.0126175 0 0 1.34354 0 0 
111 1 111 0.179914 0.420056 0 0 -0.154697 -0.0231068 -0.0569815 0.00939554 0 0 1.4584 0 0 
112 1 112 0.179899 0.460064 0 0 -0.174173 -0.0330478 -0.0664157 0.0122889 0 0 1.59858 0 0 
113 1 113 0.179884 0.500072 0 0 -0.187285 -0.0374985 -0.0720506 0.0192166 0 0 0.863929 0 0 
114 1 114 0.17987 0.54008 0 0 -0.208125 -0.0529147 -0.0836796 0.0229799 0 0 0.544017 0 0 
115 1 115 0.179856 0.580087 0 0 -0.224466 -0.0624254 -0.0919744 0.030415 0 0 0.0400577 0 0 
116 1 116 0.179839 0.620093 0 0 -0.236543 -0.0741591 -0.0996177 0.0292787 0 0 0.0579475 0 0 
117 1 117 0.179822 0.660098 0 0 -0.236389 -0.0756263 -0.100038 0.0353135 0 0 -0.568423 0 0 
118 1 118 0.179811 0.700104 0 0 -0.239173 -0.0774446 -0.10152 0.0349586 0 0 -0.504779 0 0 
119 1 119 0.179805 0.74011 0 0 -0.252122 -0.0726571 -0.104137 0.0412129 0 0 -0.678003 0 0 
120 1 120 0.1798 0.780119 0 0 -0.276026 -0.07122 -0.111351 0.0329656 0 0 0.192618 0 0 
121 1 121 0.179793 0.82013 0 0 -0.297853 -0.0590823 -0.114457 0.0345895 0 0 0.256027 0 0 
122 1 122 0.179783 0.860145 0 0 -0.322074 -0.0531776 -0.120334 0.0239192 0 0 0.535612 0 0 
123 1 123 0.179768 0.900162 0 0 -0.331632 -0.0345693 -0.117427 0.0161129 0 0 0.829361 0 0 
124 1 124 0.179746 0.940184 0 0 -0.340243 -0.0161984 -0.114316 0.00431 0 0 0.948507 0 0 
125 1 125 0.17972 0.980208 0 0 -0.340138 -0.00675517 -0.111249 0.00329388 0 0 0.746267 0 0 
126 1 126 0.219999 0.0200008 0 0 -0.00874185 0.00603777 -0.000855008 -0.010603 0 0 0.145196 0 0 
127 1 127 0.219991 0.0600038 0 0 -0.0253726 0.0180005 -0.00234904 -0.0194217 0 0 0.287998 0 0 
128 1 128 0.219976 0.100009 0 0 -0.0404604 0.0171252 -0.00746935 -0.0201742 0 0 0.844757 0 0 
129 1 129 0.219962 0.140016 0 0 -0.050155 0.0199057 -0.00968491 -0.010362 0 0 0.90362 0 0 
130 1 130 0.219949 0.180023 0 0 -0.0643701 0.0132045 -0.016385 -0.00954092 0 0 0.991645 0 0 
131 1 131 0.219939 0.220029 0 0 -0.0773862 0.00556587 -0.0229989 0.00631866 0 0 0.604898 0 0 
132 1 132 0.219931 0.260037 0 0 -0.0909003 0.00459829 -0.0276403 0.00443764 0 0 0.905433 0 0 
133 1 133 0.219924 0.300044 0 0 -0.108963 -0.00238404 -0.0356763 0.0151101 0 0 0.75238 0 0 
134 1 134 0.219918 0.340053 0 0 -0.127176 -0.00402254 -0.0420484 0.00969299 0 0 1.23718 0 0 
135 1 135 0.219908 0.380062 0 0 -0.148702 -0.0127125 -0.0517365 0.0103484 0 0 1.54745 0 0 
136 1 136 0.219897 0.420071 0 0 -0.162714 -0.0154519 -0.0571034 0.00554905 0 0 1.92266 0 0 
137 1 137 0.219886 0.46008 0 0 -0.182828 -0.0270703 -0.0672816 0.0096509 0 0 2.23685 0 0 
138 1 138 0.219875 0.50009 0 0 -0.20418 -0.0385687 -0.0778208 0.016111 0 0 1.9362 0 0 
139 1 139 0.219866 0.540099 0 0 -0.220182 -0.0452709 -0.0851011 0.018525 0 0 1.88406 0 0 
140 1 140 0.21986 0.580108 0 0 -0.231591 -0.0627379 -0.0943661 0.0279368 0 0 1.00737 0 0 
141 1 141 0.219856 0.620115 0 0 -0.239604 -0.067733 -0.0985417 0.0203207 0 0 1.32257 0 0 
142 1 142 0.219849 0.660123 0 0 -0.270903 -0.0899851 -0.115726 0.0235263 0 0 1.7814 0 0 
143 1 143 0.219839 0.70013 0 0 -0.296479 -0.098376 -0.126632 0.0208132 0 0 2.88885 0 0 
144 1 144 0.219822 0.740138 0 0 -0.312665 -0.0952574 -0.130827 0.0261051 0 0 3.00601 0 0 
145 1 145 0.219803 0.780147 0 0 -0.320835 -0.0859771 -0.130469 0.0204194 0 0 3.05973 0 0 
146 1 146 0.21978 0.820159 0 0 -0.317297 -0.0640169 -0.122279 0.0235387 0 0 2.40097 0 0 
147 1 147 0.219758 0.860174 0 0 -0.325163 -0.0507557 -0.120549 0.015794 0 0 2.27325 0 0 
148 1 148 0.219731 0.900192 0 0 -0.332663 -0.0318886 -0.116895 0.0131749 0 0 1.83881 0 0 
149 1 149 0.219703 0.940213 0 0 -0.337895 -0.0185489 -0.114317 -0.000940623 0 0 1.77943 0 0 
150 1 150 0.219672 0.980238 0 0 -0.349065 -0.00627201 -0.11396 0.00242133 0 0 1.26715 0 0 
151 1 151 0.259993 0.020002 0 0 -0.00558587 0.0189637 0.00429416 -0.0196072 0 0 0.0112833 0 0 
152 1 152 0.259979 0.0600069 0 0 -0.0261079 0.030192 0.00132283 -0.0272738 0 0 0.292661 0 0 
153 1 153 0.259965 0.100015 0 0 -0.0457745 0.02835 -0.00557153 -0.0242426 0 0 0.91412 0 0 
154 1 154 0.25995 0.140023 0 0 -0.0595294 0.027473 -0.0102601 -0.0155351 0 0 0.938553 0 0 
155 1 155 0.259936 0.180032 0 0 -0.0730005 0.0172915 -0.0178399 -0.0128318 0 0 1.07896 0 0 
156 1 156 0.259924 0.22004 0 0 -0.0819065 0.0122152 -0.022315 0.00311459 0 0 0.744191 0 0 
157 1 157 0.259914 0.260048 0 0 -0.0971013 0.00695986 -0.0288681 -0.00127358 0 0 1.04125 0 0 
158 1 158 0.259904 0.300057 0 0 -0.115032 0.00226376 -0.0361273 0.00964641 0 0 0.704469 0 0 
159 1 159 0.259894 0.340067 0 0 -0.133128 0.000826836 -0.0423948 0.00154292 0 0 1.26139 0 0 
160 1 160 0.25988 0.380078 0 0 -0.150411 -0.00117668 -0.0485828 0.00394579 0 0 1.43133 0 0 
161 1 161 0.259865 0.420089 0 0 -0.168245 -0.0135329 -0.0582641 -0.00218761 0 0 1.70361 0 0 
162 1 162 0.259845 0.4601 0 0 -0.182628 -0.0186799 -0.0645324 -0.00160382 0 0 1.8843 0 0 
163 1 163 0.259826 0.500111 0 0 -0.196543 -0.0296231 -0.0725079 0.00507321 0 0 1.14413 0 0 
164 1 164 0.259808 0.540121 0 0 -0.205641 -0.0352406 -0.0772231 0.00597941 0 0 1.10101 0 0 
165 1 165 0.259791 0.58013 0 0 -0.225687 -0.0490486 -0.0880812 0.0162729 0 0 0.542603 0 0 
166 1 166 0.259773 0.620138 0 0 -0.240365 -0.0673642 -0.0986668 0.0143903 0 0 0.649872 0 0 
167 1 167 0.259754 0.660145 0 0 -0.225483 -0.0563087 -0.0903412 0.0200335 0 0 0.118973 0 0 
168 1 168 0.259739 0.700152 0 0 -0.227964 -0.0649996 -0.0939251 0.0186025 0 0 0.116333 0 0 
169 1 169 0.259727 0.740161 0 0 -0.237433 -0.0461761 -0.0909239 0.0198274 0 0 0.265111 0 0 
170 1 170 0.259716 0.780172 0 0 -0.272279 -0.0563243 -0.105362 0.0163074 0 0 0.909486 0 0 
171 1 171 0.259703 0.820186 0 0 -0.295358 -0.0435196 -0.108655 0.0210891 0 0 0.927204 0 0 
172 1 172 0.259687 0.860203 0 0 -0.315225 -0.0338163 -0.111923 0.0109721 0 0 1.4263 0 0 
173 1 173 0.259666 0.900222 0 0 -0.324756 -0.0261546 -0.112517 0.0151232 0 0 1.15463 0 0 
174 1 174 0.259641 0.940244 0 0 -0.333606 -0.0150332 -0.111811 -0.00162352 0 0 1.20593 0 0 
175 1 175 0.25961 0.980268 0 0 -0.338473 -0.0040162 -0.109834 0.00485764 0 0 0.380703 0 0 
176 1 176 0.299994 0.0200029 0 0 -0.00473822 0.0314063 0.0085512 -0.0308119 0 0 0.174067 0 0 
177 1 177 0.299978 0.0600093 0 0 -0.0305244 0.037425 0.00222261 -0.0345594 0 0 0.569021 0 0 
178 1 178 0.299957 0.100019 0 0 -0.0475701 0.0393828 -0.00261053 -0.0320067 0 0 0.931088 0 0 
179 1 179 0.299939 0.140029 0 0 -0.0640613 0.034295 -0.00952444 -0.0226255 0 0 0.914755 0 0 
180 1 180 0.299924 0.180039 0 0 -0.0720548 0.0283632 -0.0139883 -0.0170341 0 0 1.15924 0 0 
181 1 181 0.299911 0.220048 0 0 -0.0845981 0.017255 -0.0215639 -0.00481138 0 0 0.720585 0 0 
182 1 182 0.299899 0.260058 0 0 -0.102105 0.012462 -0.0287091 -0.0111957 0 0 1.01736 0 0 
183 1 183 0.299886 0.300068 0 0 -0.122775 0.00474625 -0.0378102 0.00120472 0 0 0.697791 0 0 
184 1 184 0.299875 0.340079 0 0 -0.141376 0.00460892 -0.0438197 -0.00860166 0 0 1.33336 0 0 
185 1 185 0.29986 0.38009 0 0 -0.162178 -0.00177269 -0.0525389 -0.00553361 0 0 1.52544 0 0 
186 1 186 0.299845 0.420102 0 0 -0.177987 -0.011348 -0.0606847 -0.0102462 0 0 1.78198 0 0 
187 1 187 0.299829 0.460113 0 0 -0.188961 -0.0190672 -0.0666872 -0.00840052 0 0 2.25995 0 0 
188 1 188 0.299815 0.500124 0 0 -0.207715 -0.0282871 -0.0756646 -0.00302354 0 0 2.08783 0 0 
189 1 189 0.299803 0.540134 0 0 -0.22763 -0.0462486 -0.0878106 0.00171435 0 0 2.16674 0 0 
190 1 190 0.299794 0.580145 0 0 -0.225325 -0.040254 -0.0851422 0.00806755 0 0 1.59318 0 0 
191 1 191 0.299788 0.620155 0 0 -0.245485 -0.0615474 -0.0984425 0.0042149 0 0 1.99832 0 0 
192 1 192 0.29978 0.660165 0 0 -0.275031 -0.0700812 -0.110662 0.00741255 0 0 2.41617 0 0 
193 1 193 0.299765 0.700175 0 0 -0.313527 -0.0907447 -0.129654 0.00334023 0 0 3.61392 0 0 
194 1 194 0.299743 0.740186 0 0 -0.328427 -0.0799552 -0.130974 0.00772022 0 0 3.84667 0 0 
195 1 195 0.299717 0.780199 0 0 -0.328899 -0.0654889 -0.12648 0.006491 0 0 3.79635 0 0 
196 1 196 0.299689 0.820215 0 0 -0.331479 -0.0486277 -0.12189 0.0132174 0 0 3.22203 0 0 
197 1 197 0.299659 0.860233 0 0 -0.339614 -0.034555 -0.119991 0.00556909 0 0 3.04109 0 0 
198 1 198 0.299629 0.900254 0 0 -0.338196 -0.0242947 -0.116237 0.0153863 0 0 2.03856 0 0 
199 1 199 0.299597 0.940276 0 0 -0.336499 -0.0148294 -0.112673 -0.00623905 0 0 1.98131 0 0 
200 1 200 0.299562 0.980301 0 0 -0.34516 -0.00724894 -0.113016 0.00549009 0 0 0.864253 0 0 
201 1 201 0.339988 0.0200037 0 0 0.00743237 0.0453911 0.0169297 -0.0437961 0 0 0.135998 0 0 
202 1 202 0.339965 0.0600113 0 0 -0.0206617 0.0465904 0.00831812 -0.0465753 0 0 0.451832 0 0 
203 1 203 0.339944 0.100022 0 0 -0.04398 0.0496217 0.00181964 -0.043109 0 0 0.815279 0 0 
204 1 204 0.339925 0.140033 0 0 -0.0636952 0.0400203 -0.00757271 -0.0321766 0 0 0.830758 0 0 
205 1 205 0.339908 0.180045 0 0 -0.0728385 0.0383017 -0.0110555 -0.02528 0 0 0.98578 0 0 
206 1 206 0.339893 0.220055 0 0 -0.0945096 0.0168218 -0.0248828 -0.0173786 0 0 0.644965 0 0 
207 1 207 0.339879 0.260066 0 0 -0.102163 0.0217984 -0.0257373 -0.0217101 0 0 1.14262 0 0 
208 1 208 0.339864 0.300077 0 0 -0.119857 0.0113066 -0.0347709 -0.0139981 0 0 0.919263 0 0 
209 1 209 0.339848 0.340089 0 0 -0.14105 0.00976369 -0.0420619 -0.0241784 0 0 1.31449 0 0 
210 1 210 0.339829 0.380101 0 0 -0.158407 0.0025793 -0.0499303 -0.0195333 0 0 1.34814 0 0 
211 1 211 0.33981 0.420114 0 0 -0.172953 -0.0032679 -0.0564741 -0.0241704 0 0 1.5695 0 0 
212 1 212 0.339788 0.460126 0 0 -0.187991 -0.0161514 -0.0654341 -0.0230006 0 0 1.71073 0 0 
213 1 213 0.339765 0.500139 0 0 -0.192787 -0.0178745 -0.0675302 -0.0205008 0 0 1.26847 0 0 
214 1 214 0.339744 0.54015 0 0 -0.20728 -0.0289665 -0.0757329 -0.0138551 0 0 1.22743 0 0 
215 1 215 0.339725 0.580161 0 0 -0.229263 -0.0350726 -0.0847418 -0.00364785 0 0 0.998282 0 0 
216 1 216 0.339704 0.620172 0 0 -0.241515 -0.0448293 -0.091805 -0.00152786 0 0 1.41217 0 0 
217 1 217 0.339682 0.660183 0 0 -0.229033 -0.0341354 -0.0843671 0.00560094 0 0 0.831435 0 0 
218 1 218 0.339662 0.700194 0 0 -0.227619 -0.0311777 -0.0829653 0.00202281 0 0 0.861829 0 0 
219 1 219 0.339644 0.740208 0 0 -0.244466 -0.0218881 -0.0853887 0.00483876 0 0 0.99512 0 0 
220 1 220 0.339626 0.780224 0 0 -0.28815 -0.0316709 -0.102545 0.00489913 0 0 1.52738 0 0 
221 1 221 0.339607 0.820243 0 0 -0.312604 -0.0200235 -0.106652 0.0109472 0 0 1.67361 0 0 
222 1 222 0.339586 0.860264 0 0 -0.328193 -0.0198153 -0.111598 0.00679335 0 0 1.94991 0 0 
223 1 223 0.339562 0.900286 0 0 -0.333701 -0.0151598 -0.111867 0.0204719 0 0 1.04919 0 0 
224 1 224 0.339535 0.94031 0 0 -0.333844 -0.00944058 -0.110091 -0.0045679 0 0 1.25576 0 0 
225 1 225 0.339501 0.980334 0 0 -0.329217 -0.00141034 -0.106022 0.00727747 0 0 -0.0301837 0 0 
226 1 226 0.379989 0.0200034 0 0 0.00213848 0.042321 0.0142528 -0.0559221 0 0 0.324567 0 0 
227 1 227 0.379963 0.060011 0 0 -0.0250024 0.0452754 0.00650819 -0.0586668 0 0 0.596298 0 0 
228 1 228 0.379936 0.100022 0 0 -0.0389254 0.053792 0.00477544 -0.055031 0 0 0.654026 0 0 
229 1 229 0.379913 0.140033 0 0 -0.0563025 0.0460656 -0.00326727 -0.0444181 0 0 0.616755 0 0 
230 1 230 0.379895 0.180045 0 0 -0.0639578 0.0476282 -0.00522253 -0.036632 0 0 0.814616 0 0 
231 1 231 0.37988 0.220057 0 0 -0.0801101 0.0325413 -0.0152336 -0.0326665 0 0 0.654696 0 0 
232 1 232 0.379863 0.260069 0 0 -0.0944902 0.032773 -0.0197658 -0.0335565 0 0 1.06827 0 0 
233 1 233 0.379846 0.300081 0 0 -0.121889 0.0160967 -0.033892 -0.0304111 0 0 0.970866 0 0 
234 1 234 0.379827 0.340094 0 0 -0.145883 0.0132651 -0.0424937 -0.0378154 0 0 1.43034 0 0 
235 1 235 0.379807 0.380106 0 0 -0.169546 0.000688904 -0.0541107 -0.0297783 0 0 1.52472 0 0 
236 1 236 0.379788 0.42012 0 0 -0.186349 -0.00490749 -0.0612951 -0.0341098 0 0 1.77409 0 0 
237 1 237 0.37977 0.460132 0 0 -0.204309 -0.0199517 -0.0718816 -0.0281891 0 0 1.9247 0 0 
238 1 238 0.379753 0.500144 0 0 -0.221729 -0.0246477 -0.0789793 -0.0255659 0 0 2.12732 0 0 
239 1 239 0.379738 0.540157 0 0 -0.240624 -0.036556 -0.0888601 -0.0169559 0 0 2.3988 0 0 
240 1 240 0.379725 0.58017 0 0 -0.242081 -0.0275653 -0.0864438 -0.0111609 0 0 2.10559 0 0 
241 1 241 0.379715 0.620184 0 0 -0.264942 -0.0425938 -0.0986074 -0.00927936 0 0 2.4384 0 0 
242 1 242 0.379704 0.6602 0 0 -0.299032 -0.0458839 -0.110602 -0.00891636 0 0 2.93593 0 0 
243 1 243 0.379684 0.700215 0 0 -0.346975 -0.0684098 -0.133225 -0.0135026 0 0 4.06834 0 0 
244 1 244 0.379656 0.740232 0 0 -0.356676 -0.0537048 -0.131616 -0.00952163 0 0 4.2791 0 0 
245 1 245 0.379622 0.780251 0 0 -0.356367 -0.0448538 -0.128676 -0.0102521 0 0 4.30497 0 0 
246 1 246 0.379587 0.820273 0 0 -0.355058 -0.0257421 -0.122119 0.00202376 0 0 3.60621 0 0 
247 1 247 0.379554 0.860295 0 0 -0.353875 -0.0196027 -0.119777 -0.00193005 0 0 3.38044 0 0 
248 1 248 0.379523 0.90032 0 0 -0.345922 -0.0114122 -0.114593 0.0165881 0 0 2.09158 0 0 
249 1 249 0.379491 0.940344 0 0 -0.337733 -0.00691634 -0.110533 -0.00678962 0 0 2.06945 0 0 
250 1 250 0.379455 0.980369 0 0 -0.329789 -0.00328293 -0.106807 0.00720433 0 0 0.679178 0 0 
251 1 251 0.419983 0.020003 0 0 0.00612994 0.0376441 0.0140339 -0.0665709 0 0 0.180491 0 0 
252 1 252 0.419951 0.0600099 0 0 -0.0148123 0.0452327 0.00976047 -0.0692924 0 0 0.253835 0 0 
253 1 253 0.419923 0.10002 0 0 -0.0328472 0.0504591 0.0056556 -0.0644519 0 0 0.361802 0 0 
254 1 254 0.4199 0.140031 0 0 -0.0469415 0.0505761 0.0011759 -0.0548235 0 0 0.312095 0 0 
255 1 255 0.41988 0.180043 0 0 -0.0575616 0.0521834 -0.00171526 -0.0453011 0 0 0.443388 0 0 
256 1 256 0.419862 0.220056 0 0 -0.0748471 0.0446926 -0.00965491 -0.0454105 0 0 0.595081 0 0 
257 1 257 0.419843 0.260069 0 0 -0.093508 0.041473 -0.0166655 -0.0464845 0 0 1.08598 0 0 
258 1 258 0.419823 0.300083 0 0 -0.12301 0.0227128 -0.0321343 -0.0462578 0 0 1.21232 0 0 
259 1 259 0.419799 0.340097 0 0 -0.142502 0.0243344 -0.0378634 -0.0510506 0 0 1.58289 0 0 
260 1 260 0.419776 0.380111 0 0 -0.168048 0.00403524 -0.0525598 -0.0420177 0 0 1.44287 0 0 
261 1 261 0.419751 0.420125 0 0 -0.187716 0.00138999 -0.0597157 -0.0471996 0 0 1.64391 0 0 
262 1 262 0.419725 0.460139 0 0 -0.208725 -0.0154639 -0.0718589 -0.0382438 0 0 1.37549 0 0 
263 1 263 0.4197 0.500154 0 0 -0.209911 -0.00845602 -0.0699932 -0.0380381 0 0 1.25046 0 0 
264 1 264 0.419675 0.540168 0 0 -0.224055 -0.0183267 -0.0776947 -0.0270623 0 0 1.31278 0 0 
265 1 265 0.419652 0.580183 0 0 -0.243874 -0.0135658 -0.0825257 -0.020432 0 0 1.43158 0 0 
266 1 266 0.419626 0.620198 0 0 -0.262234 -0.0219119 -0.0911008 -0.0113687 0 0 1.71449 0 0 
267 1 267 0.4196 0.660215 0 0 -0.248591 -0.00196721 -0.0803231 -0.00700781 0 0 1.21805 0 0 
268 1 268 0.419574 0.700233 0 0 -0.242779 0.00402988 -0.0765342 -0.0114385 0 0 1.15221 0 0 
269 1 269 0.41955 0.740254 0 0 -0.259942 0.00817219 -0.0807085 -0.00792861 0 0 1.09481 0 0 
270 1 270 0.419526 0.780275 0 0 -0.3018 -0.00233209 -0.0975133 -0.0148812 0 0 1.84662 0 0 
271 1 271 0.419501 0.8203 0 0 -0.324323 0.00140852 -0.10354 -0.000939595 0 0 1.78546 0 0 
272 1 272 0.419477 0.860324 0 0 -0.337509 -0.00452543 -0.109686 -0.00303852 0 0 2.05926 0 0 
273 1 273 0.419453 0.90035 0 0 -0.338951 0.00617233 -0.106715 0.0141998 0 0 1.15689 0 0 
274 1 274 0.419428 0.940376 0 0 -0.331648 -0.000443587 -0.106504 -0.0044585 0 0 1.31436 0 0 
275 1 275 0.419397 0.980401 0 0 -0.305185 0.00720494 -0.0955455 0.00793263 0 0 0.105832 0 0 
276 1 276 0.459984 0.0200021 0 0 -0.00288959 0.023489 0.00660858 -0.0757229 0 0 0.272661 0 0 
277 1 277 0.459951 0.060007 0 0 -0.0184866 0.0326707 0.00455886 -0.0774685 0 0 0.260825 0 0 
278 1 278 0.459918 0.100015 0 0 -0.0230565 0.0470953 0.00771348 -0.071348 0 0 0.139855 0 0 
279 1 279 0.45989 0.140025 0 0 -0.0373107 0.0504226 0.00421054 -0.0638877 0 0 0.0725825 0 0 
280 1 280 0.459868 0.180038 0 0 -0.0514335 0.060941 0.00305354 -0.0527089 0 0 0.322177 0 0 
281 1 281 0.459849 0.220051 0 0 -0.0733552 0.0525721 -0.00665099 -0.0531521 0 0 0.572582 0 0 
282 1 282 0.459827 0.260066 0 0 -0.0904395 0.054564 -0.0114865 -0.0528794 0 0 1.06362 0 0 
283 1 283 0.459803 0.300081 0 0 -0.121866 0.0343643 -0.0280317 -0.0535077 0 0 1.46444 0 0 
284 1 284 0.459777 0.340097 0 0 -0.148276 0.0306959 -0.037674 -0.0551524 0 0 1.77588 0 0 
285 1 285 0.459751 0.380112 0 0 -0.187078 0.00053112 -0.0597861 -0.0462019 0 0 1.71469 0 0 
286 1 286 0.459727 0.420127 0 0 -0.2055 0.00151325 -0.0653785 -0.0476786 0 0 1.95648 0 0 
287 1 287 0.459704 0.460142 0 0 -0.22683 -0.0171233 -0.0782018 -0.0355365 0 0 1.78328 0 0 
288 1 288 0.459684 0.500157 0 0 -0.246208 -0.0139325 -0.0833979 -0.0365567 0 0 2.27307 0 0 
289 1 289 0.459664 0.540173 0 0 -0.269784 -0.0282071 -0.0955382 -0.0243973 0 0 2.46411 0 0 
290 1 290 0.459647 0.580191 0 0 -0.267863 -0.01028 -0.0891678 -0.023469 0 0 2.39954 0 0 
291 1 291 0.459632 0.62021 0 0 -0.288622 -0.0165538 -0.0978463 -0.0189882 0 0 2.64311 0 0 
292 1 292 0.459616 0.660232 0 0 -0.332904 -0.0233781 -0.114249 -0.0238971 0 0 3.26438 0 0 
293 1 293 0.45959 0.700254 0 0 -0.384656 -0.0438028 -0.137422 -0.0290163 0 0 4.16677 0 0 
294 1 294 0.459556 0.740277 0 0 -0.392529 -0.0381305 -0.138126 -0.024929 0 0 4.1746 0 0 
295 1 295 0.459517 0.7803 0 0 -0.382308 -0.0297912 -0.132171 -0.0310125 0 0 4.43173 0 0 
296 1 296 0.459478 0.820326 0 0 -0.368279 -0.00995535 -0.121296 -0.01175 0 0 3.55865 0 0 
297 1 297 0.459444 0.860352 0 0 -0.362475 -0.0082508 -0.118895 -0.0150731 0 0 3.54674 0 0 
298 1 298 0.459412 0.900379 0 0 -0.347176 0.0108717 -0.107846 0.0053994 0 0 2.35064 0 0 
299 1 299 0.459384 0.940406 0 0 -0.33347 0.00220736 -0.106236 -0.00752705 0 0 2.13147 0 0 
300 1 300 0.459354 0.980431 0 0 -0.310048 0.0024508 -0.0986307 0.00402531 0 0 1.18258 0 0 
301 1 301 0.499979 0.0200013 0 0 -0.000879888 0.0132077 0.00395786 -0.0828648 0 0 0.0663588 0 0 
302 1 302 0.499941 0.0600046 0 0 -0.0140552 0.023454 0.00302436 -0.0825205 0 0 -0.0808403 0 0 
303 1 303 0.499908 0.100011 0 0 -0.0250592 0.0384791 0.0043098 -0.0742368 0 0 -0.0179387 0 0 
304 1 304 0.49988 0.14002 0 0 -0.0356431 0.0461891 0.00338782 -0.0677006 0 0 -0.0861372 0 0 
305 1 305 0.499854 0.180033 0 0 -0.0417339 0.0697312 0.00897671 -0.0580164 0 0 0.157594 0 0 
306 1 306 0.499831 0.220048 0 0 -0.068297 0.0656347 -0.000845017 -0.0609376 0 0 0.592132 0 0 
307 1 307 0.499805 0.260065 0 0 -0.0937578 0.0637531 -0.00960341 -0.0588511 0 0 1.08872 0 0 
308 1 308 0.499778 0.300082 0 0 -0.128065 0.0456592 -0.0263954 -0.0643798 0 0 1.73843 0 0 
309 1 309 0.499747 0.340099 0 0 -0.157334 0.03383 -0.0395698 -0.0632052 0 0 1.85654 0 0 
310 1 310 0.499716 0.380116 0 0 -0.185979 0.00909873 -0.0566828 -0.0555273 0 0 1.7018 0 0 
311 1 311 0.499686 0.420133 0 0 -0.203896 0.0123043 -0.0614017 -0.0554862 0 0 1.86455 0 0 
312 1 312 0.499656 0.460149 0 0 -0.22762 -0.0112009 -0.0765566 -0.041557 0 0 1.36422 0 0 
313 1 313 0.499627 0.500167 0 0 -0.223419 0.0080905 -0.0690239 -0.046515 0 0 1.5728 0 0 
314 1 314 0.499598 0.540184 0 0 -0.237564 -0.00168657 -0.0766928 -0.0314855 0 0 1.45605 0 0 
315 1 315 0.499569 0.580204 0 0 -0.255536 0.0109449 -0.0784032 -0.0312391 0 0 1.84189 0 0 
316 1 316 0.499538 0.620224 0 0 -0.28076 0.00240016 -0.0892393 -0.0203529 0 0 1.8094 0 0 
317 1 317 0.499506 0.660247 0 0 -0.263448 0.0267284 -0.0758805 -0.0200415 0 0 1.36363 0 0 
318 1 318 0.499474 0.700271 0 0 -0.250041 0.0348198 -0.068986 -0.0234063 0 0 1.14345 0 0 
319 1 319 0.499446 0.740296 0 0 -0.266434 0.0327617 -0.0749027 -0.0205672 0 0 0.931136 0 0 
320 1 320 0.499418 0.780321 0 0 -0.301195 0.0177782 -0.0908668 -0.0310153 0 0 1.91862 0 0 
321 1 321 0.49939 0.820348 0 0 -0.318991 0.0171957 -0.0967604 -0.0114559 0 0 1.58758 0 0 
322 1 322 0.499366 0.860375 0 0 -0.32936 0.0109102 -0.102112 -0.0166237 0 0 2.09773 0 0 
323 1 323 0.499342 0.900403 0 0 -0.325526 0.0235674 -0.0968194 0.000610748 0 0 1.41049 0 0 
324 1 324 0.499321 0.94043 0 0 -0.318521 0.00736552 -0.0997782 -0.00636016 0 0 1.38858 0 0 
325 1 325 0.499299 0.980455 0 0 -0.286139 0.0145859 -0.087062 0.00254286 0 0 0.910598 0 0 
326 1 326 0.539981 0.0200004 0 0 -0.0146593 -0.00255703 -0.00550816 -0.0892064 0 0 0.0570506 0 0 
327 1 327 0.539942 0.060002 0 0 -0.0231693 0.0100365 -0.00419701 -0.0851732 0 0 -0.119834 0 0 