ITEM: TIMESTEP
0
ITEM: NUMBER OF ATOMS
6875
ITEM: BOX BOUNDS sm sm sm
0 4
0 2
0 0
ITEM: ATOMS id type tag x y z damage s11 s22 s33 s12 s13 s23 vx T ienergy 
1 1 1 0.0199963 0.0199985 0 0 -0.037004 -0.0393788 -0.0244683 -0.0137219 0 0 -0.0157057 0 0 
2 1 2 0.0199932 0.0599959 0 0 -0.0647979 -0.0357518 -0.0322065 -0.0204482 0 0 0.0507599 0 0 
3 1 3 0.0199929 0.0999963 0 0 -0.0864321 -0.0388691 -0.0401451 -0.0208985 0 0 0.0750454 0 0 
4 1 4 0.0199926 0.139996 0 0 -0.11766 -0.0550675 -0.0553535 -0.0219219 0 0 -0.155709 0 0 
5 1 5 0.0199896 0.179996 0 0 -0.150712 -0.0753688 -0.0724619 -0.0213348 0 0 -0.367767 0 0 
6 1 6 0.0199884 0.219995 0 0 -0.175219 -0.0911161 -0.0853744 -0.0253325 0 0 -0.367319 0 0 
7 1 7 0.019987 0.259994 0 0 -0.190076 -0.0984565 -0.0924959 -0.0295345 0 0 -0.448571 0 0 
8 1 8 0.0199865 0.299992 0 0 -0.203103 -0.0980061 -0.0965293 -0.0354838 0 0 -0.399096 0 0 
9 1 9 0.0199842 0.339993 0 0 -0.219786 -0.101724 -0.103076 -0.0338408 0 0 -0.399124 0 0 
10 1 10 0.0199827 0.379994 0 0 -0.232695 -0.0986443 -0.106229 -0.0308373 0 0 -0.353699 0 0 
11 1 11 0.0199793 0.419997 0 0 -0.251067 -0.109864 -0.115726 -0.022164 0 0 -0.409385 0 0 
12 1 12 0.0199758 0.459998 0 0 -0.261604 -0.113849 -0.12039 -0.0163737 0 0 -0.525168 0 0 
13 1 13 0.01997 0.5 0 0 -0.276604 -0.131877 -0.130994 -0.0123565 0 0 -0.642877 0 0 
14 1 14 0.0199665 0.539999 0 0 -0.292769 -0.134135 -0.136913 -0.0154864 0 0 -0.493236 0 0 
15 1 15 0.0199621 0.579999 0 0 -0.316286 -0.156123 -0.151528 -0.0116046 0 0 -0.144006 0 0 
16 1 16 0.0199544 0.619997 0 0 -0.33658 -0.150192 -0.156143 -0.0190656 0 0 0.134631 0 0 
17 1 17 0.0199402 0.659998 0 0 -0.366782 -0.168237 -0.171643 -0.00572147 0 0 -0.879465 0 0 
18 1 18 0.0199337 0.699998 0 0 -0.383498 -0.159576 -0.174231 -0.00503353 0 0 -1.52135 0 0 
19 1 19 0.0199337 0.740003 0 0 -0.425878 -0.18614 -0.196387 0.0127472 0 0 -1.57601 0 0 
20 1 20 0.0199417 0.780005 0 0 -0.459072 -0.1833 -0.206144 0.0223826 0 0 -1.15374 0 0 
21 1 21 0.0199445 0.820012 0 0 -0.514322 -0.225921 -0.237613 0.0464148 0 0 -1.31646 0 0 
22 1 22 0.0199491 0.860015 0 0 -0.544777 -0.205475 -0.240832 0.0614371 0 0 -1.0875 0 0 
23 1 23 0.0199476 0.900026 0 0 -0.622786 -0.252451 -0.281045 0.0966051 0 0 -0.882639 0 0 
24 1 24 0.0199494 0.940034 0 0 -0.665433 -0.22065 -0.284546 0.138855 0 0 -0.0232149 0 0 
25 1 25 0.0199283 0.980063 0 0 -0.89195 -0.207279 -0.363173 0.174524 0 0 -0.177799 0 0 
26 1 26 0.0599983 0.0199968 0 0 -0.0349306 -0.0599827 -0.0304051 -0.0146832 0 0 0.404026 0 0 
27 1 27 0.0599935 0.0599911 0 0 -0.0528743 -0.0451696 -0.0314079 -0.0168736 0 0 0.615732 0 0 
28 1 28 0.0599847 0.0999896 0 0 -0.0894182 -0.0450533 -0.0430825 -0.0211277 0 0 0.0438383 0 0 
29 1 29 0.059978 0.139989 0 0 -0.126167 -0.0633535 -0.0607322 -0.0258141 0 0 -0.620956 0 0 
30 1 30 0.059973 0.179988 0 0 -0.143879 -0.0748951 -0.0701199 -0.0206419 0 0 -1.05481 0 0 
31 1 31 0.0599708 0.219986 0 0 -0.161179 -0.0949865 -0.0821159 -0.0212565 0 0 -1.08132 0 0 
32 1 32 0.059967 0.259983 0 0 -0.17849 -0.10144 -0.0897411 -0.0197813 0 0 -1.07956 0 0 
33 1 33 0.0599642 0.29998 0 0 -0.1971 -0.100022 -0.0952545 -0.0256465 0 0 -0.88389 0 0 
34 1 34 0.0599595 0.339981 0 0 -0.220469 -0.0969889 -0.101781 -0.0235133 0 0 -0.890016 0 0 
35 1 35 0.0599573 0.379982 0 0 -0.237935 -0.0897034 -0.105046 -0.0227231 0 0 -0.684816 0 0 
36 1 36 0.0599549 0.419986 0 0 -0.258708 -0.0986027 -0.114568 -0.0178694 0 0 -0.531286 0 0 
37 1 37 0.0599569 0.459989 0 0 -0.270495 -0.104078 -0.120112 -0.0114647 0 0 -0.443785 0 0 
38 1 38 0.0599593 0.499992 0 0 -0.29027 -0.131326 -0.135211 -0.00775218 0 0 -0.252699 0 0 
39 1 39 0.0599599 0.539993 0 0 -0.297403 -0.129173 -0.13681 -0.00962752 0 0 -0.35651 0 0 
40 1 40 0.0599582 0.579995 0 0 -0.321622 -0.152463 -0.152067 0.0011366 0 0 -1.07151 0 0 
41 1 41 0.0599606 0.619997 0 0 -0.337588 -0.137177 -0.152287 -0.00841217 0 0 -0.686349 0 0 
42 1 42 0.0599643 0.660003 0 0 -0.381423 -0.151177 -0.170865 0.0113556 0 0 -0.25104 0 0 
43 1 43 0.0599652 0.700009 0 0 -0.416213 -0.147339 -0.180811 0.00886984 0 0 0.880139 0 0 
44 1 44 0.0599531 0.740018 0 0 -0.454578 -0.158588 -0.196756 0.025852 0 0 0.847397 0 0 
45 1 45 0.0599371 0.780028 0 0 -0.474645 -0.146298 -0.199256 0.0314055 0 0 0.609448 0 0 
46 1 46 0.0599201 0.820041 0 0 -0.527475 -0.173864 -0.2251 0.0507896 0 0 0.561194 0 0 
47 1 47 0.0599043 0.860056 0 0 -0.568466 -0.14714 -0.229696 0.0605682 0 0 0.575774 0 0 
48 1 48 0.059885 0.900077 0 0 -0.6263 -0.152068 -0.24987 0.0856753 0 0 0.0969417 0 0 
49 1 49 0.0598615 0.94011 0 0 -0.72909 -0.0796233 -0.259643 0.104143 0 0 -0.249033 0 0 
50 1 50 0.0598138 0.980161 0 0 -0.712947 0.0322726 -0.218467 0.0144628 0 0 -0.25305 0 0 
51 1 51 0.0999941 0.019997 0 0 -0.0285671 -0.0524497 -0.0259652 -0.0169058 0 0 0.565073 0 0 
52 1 52 0.0999821 0.0599912 0 0 -0.0553855 -0.0608364 -0.0372417 -0.0252287 0 0 0.604567 0 0 
53 1 53 0.0999714 0.0999867 0 0 -0.0935956 -0.0615361 -0.0497079 -0.027907 0 0 -0.197136 0 0 
54 1 54 0.0999622 0.139985 0 0 -0.120907 -0.067197 -0.0602811 -0.0247252 0 0 -0.701685 0 0 
55 1 55 0.099955 0.179983 0 0 -0.133455 -0.0713743 -0.0656501 -0.0169961 0 0 -1.19261 0 0 
56 1 56 0.0999498 0.219981 0 0 -0.155192 -0.0918641 -0.0791965 -0.0195533 0 0 -1.30531 0 0 
57 1 57 0.0999445 0.259979 0 0 -0.171407 -0.0947411 -0.0853238 -0.0167839 0 0 -1.45291 0 0 
58 1 58 0.0999375 0.299977 0 0 -0.195155 -0.0981699 -0.0940414 -0.022557 0 0 -1.2399 0 0 
59 1 59 0.0999284 0.339978 0 0 -0.219531 -0.0938029 -0.100463 -0.0197186 0 0 -1.1636 0 0 
60 1 60 0.0999199 0.379981 0 0 -0.242074 -0.0891217 -0.106192 -0.0171257 0 0 -1.1504 0 0 
61 1 61 0.099912 0.419985 0 0 -0.258774 -0.0918935 -0.112439 -0.0110578 0 0 -1.27504 0 0 
62 1 62 0.0999049 0.459991 0 0 -0.269475 -0.0930569 -0.11625 -0.0040957 0 0 -1.5385 0 0 
63 1 63 0.0998976 0.499996 0 0 -0.28412 -0.112607 -0.127229 0.000559671 0 0 -1.69207 0 0 
64 1 64 0.0998901 0.54 0 0 -0.295074 -0.111391 -0.130354 -0.00102909 0 0 -1.42215 0 0 
65 1 65 0.0998811 0.580003 0 0 -0.332397 -0.133022 -0.149282 0.00896611 0 0 -0.950615 0 0 
66 1 66 0.0998647 0.620007 0 0 -0.359484 -0.126658 -0.155941 0.00237758 0 0 -0.399007 0 0 
67 1 67 0.0998419 0.660014 0 0 -0.379608 -0.125502 -0.162033 0.0205614 0 0 -1.41034 0 0 
68 1 68 0.0998248 0.700024 0 0 -0.39767 -0.108831 -0.162482 0.0190433 0 0 -1.91807 0 0 
69 1 69 0.0998155 0.740038 0 0 -0.435743 -0.119579 -0.178168 0.0339193 0 0 -2.06301 0 0 
70 1 70 0.0998124 0.780054 0 0 -0.465535 -0.105293 -0.183152 0.0390517 0 0 -1.7253 0 0 
71 1 71 0.0998043 0.820074 0 0 -0.513194 -0.115799 -0.201844 0.0445863 0 0 -1.61613 0 0 
72 1 72 0.0997911 0.860098 0 0 -0.546685 -0.0833184 -0.202178 0.0520463 0 0 -1.8204 0 0 
73 1 73 0.099771 0.900131 0 0 -0.633616 -0.0715537 -0.226335 0.0540737 0 0 -1.30257 0 0 
74 1 74 0.0997385 0.940174 0 0 -0.667961 -0.00593255 -0.216281 0.022031 0 0 -1.08412 0 0 
75 1 75 0.0996928 0.980223 0 0 -0.670253 -0.0275785 -0.223982 0.00452999 0 0 -0.213397 0 0 
76 1 76 0.139997 0.0199971 0 0 -0.0346412 -0.0535016 -0.0282466 -0.0235581 0 0 0.536698 0 0 
77 1 77 0.139984 0.0599902 0 0 -0.0624501 -0.0697574 -0.0423656 -0.0386131 0 0 0.482184 0 0 
78 1 78 0.139965 0.0999857 0 0 -0.0796413 -0.0592958 -0.0445256 -0.036198 0 0 -0.302294 0 0 
79 1 79 0.13995 0.139982 0 0 -0.106372 -0.0650819 -0.0549479 -0.0258784 0 0 -0.827728 0 0 
80 1 80 0.139941 0.179981 0 0 -0.133134 -0.0739147 -0.0663621 -0.0161999 0 0 -1.47555 0 0 
81 1 81 0.139934 0.219978 0 0 -0.15491 -0.0848833 -0.0768657 -0.0169285 0 0 -1.55438 0 0 
82 1 82 0.139926 0.259977 0 0 -0.170541 -0.0854972 -0.0820788 -0.0131572 0 0 -1.57979 0 0 
83 1 83 0.139916 0.299976 0 0 -0.187054 -0.0869789 -0.0878549 -0.0200301 0 0 -1.27976 0 0 
84 1 84 0.139904 0.339978 0 0 -0.20376 -0.0812461 -0.0913775 -0.0158998 0 0 -1.26002 0 0 
85 1 85 0.139894 0.379981 0 0 -0.225479 -0.0768676 -0.0969374 -0.0117335 0 0 -1.15491 0 0 
86 1 86 0.139886 0.419987 0 0 -0.249061 -0.0804038 -0.105635 0.000315689 0 0 -1.18517 0 0 
87 1 87 0.139884 0.459992 0 0 -0.270516 -0.0835959 -0.113547 0.00676247 0 0 -1.19052 0 0 
88 1 88 0.139884 0.5 0 0 -0.298923 -0.0985328 -0.127462 0.0153743 0 0 -1.02345 0 0 
89 1 89 0.13988 0.540006 0 0 -0.317042 -0.101256 -0.134153 0.0101776 0 0 -1.02881 0 0 
90 1 90 0.139872 0.580015 0 0 -0.337782 -0.109934 -0.143598 0.0168048 0 0 -1.37272 0 0 
91 1 91 0.139866 0.620025 0 0 -0.353809 -0.0983788 -0.145037 0.00791545 0 0 -0.99002 0 0 
92 1 92 0.13986 0.660038 0 0 -0.402107 -0.118958 -0.167161 0.0238727 0 0 -0.243221 0 0 
93 1 93 0.139851 0.700052 0 0 -0.435342 -0.0993488 -0.171542 0.016033 0 0 0.998122 0 0 
94 1 94 0.139828 0.740071 0 0 -0.468901 -0.113054 -0.18673 0.0331808 0 0 0.722645 0 0 
95 1 95 0.139802 0.78009 0 0 -0.485746 -0.0800594 -0.181543 0.0299261 0 0 0.360549 0 0 
96 1 96 0.139771 0.820116 0 0 -0.531787 -0.0880298 -0.198898 0.0369849 0 0 0.182361 0 0 
97 1 97 0.139739 0.860145 0 0 -0.567734 -0.0478211 -0.197528 0.0324964 0 0 0.0337811 0 0 
98 1 98 0.139697 0.900184 0 0 -0.605451 -0.0335314 -0.205053 0.0146551 0 0 -0.466661 0 0 
99 1 99 0.139649 0.940227 0 0 -0.617796 -0.003472 -0.199375 0.00749477 0 0 -0.982759 0 0 
100 1 100 0.139599 0.980275 0 0 -0.637175 0.00222233 -0.203772 -0.00425348 0 0 -0.388339 0 0 
101 1 101 0.179991 0.0199965 0 0 -0.0433424 -0.0643341 -0.0344951 -0.0318137 0 0 0.237997 0 0 
102 1 102 0.179973 0.0599898 0 0 -0.0654687 -0.0665578 -0.0423054 -0.0441841 0 0 0.163876 0 0 
103 1 103 0.179954 0.099986 0 0 -0.0783736 -0.0555857 -0.0429323 -0.0416097 0 0 -0.272716 0 0 
104 1 104 0.179937 0.139983 0 0 -0.101552 -0.0659702 -0.0536899 -0.03147 0 0 -0.882094 0 0 
105 1 105 0.179924 0.179981 0 0 -0.121021 -0.0650725 -0.0596418 -0.0198731 0 0 -1.4572 0 0 
106 1 106 0.179914 0.21998 0 0 -0.139926 -0.066567 -0.0661794 -0.0161676 0 0 -1.49337 0 0 
107 1 107 0.179903 0.259981 0 0 -0.157934 -0.0686306 -0.0726197 -0.0136758 0 0 -1.45068 0 0 
108 1 108 0.17989 0.299982 0 0 -0.182283 -0.074445 -0.0823037 -0.0196179 0 0 -1.12786 0 0 
109 1 109 0.179874 0.339985 0 0 -0.205404 -0.0719314 -0.08892 -0.0170254 0 0 -1.0977 0 0 
110 1 110 0.179858 0.37999 0 0 -0.229101 -0.0738232 -0.0971262 -0.0115806 0 0 -1.04816 0 0 
111 1 111 0.179844 0.419997 0 0 -0.244672 -0.0659525 -0.0995905 0.00109155 0 0 -1.39533 0 0 
112 1 112 0.179831 0.460006 0 0 -0.264863 -0.0685727 -0.106911 0.00935063 0 0 -1.75322 0 0 
113 1 113 0.179819 0.500016 0 0 -0.277304 -0.064182 -0.109496 0.0194097 0 0 -2.07363 0 0 
114 1 114 0.179806 0.540028 0 0 -0.298708 -0.0683899 -0.117716 0.0158447 0 0 -1.81934 0 0 
115 1 115 0.179789 0.580039 0 0 -0.339625 -0.0856226 -0.136386 0.0215312 0 0 -1.13703 0 0 
116 1 116 0.179765 0.620051 0 0 -0.363344 -0.0791337 -0.141921 0.0172599 0 0 -0.551305 0 0 
117 1 117 0.179733 0.660065 0 0 -0.383606 -0.0913604 -0.152354 0.028116 0 0 -1.24999 0 0 
118 1 118 0.179706 0.700081 0 0 -0.385752 -0.05864 -0.142539 0.0254076 0 0 -1.80316 0 0 
119 1 119 0.179687 0.740102 0 0 -0.422094 -0.0681178 -0.157253 0.0386734 0 0 -2.12696 0 0 
120 1 120 0.179672 0.780126 0 0 -0.45492 -0.0428813 -0.159694 0.0288975 0 0 -1.611 0 0 
121 1 121 0.17965 0.820157 0 0 -0.49404 -0.035687 -0.169946 0.0325331 0 0 -1.92806 0 0 
122 1 122 0.179621 0.860192 0 0 -0.52226 -0.00817192 -0.17017 0.0166994 0 0 -2.09125 0 0 
123 1 123 0.179583 0.900232 0 0 -0.568498 -0.0114407 -0.186076 0.00709587 0 0 -1.78222 0 0 
124 1 124 0.179538 0.940276 0 0 -0.59434 0.0107441 -0.187275 -0.00375628 0 0 -1.43626 0 0 
125 1 125 0.179488 0.980323 0 0 -0.614219 -0.0077451 -0.199605 -0.00803984 0 0 -0.66516 0 0 
126 1 126 0.219992 0.019996 0 0 -0.0494276 -0.0708652 -0.0385405 -0.0399455 0 0 -0.0926878 0 0 
127 1 127 0.219973 0.0599896 0 0 -0.0655612 -0.0599645 -0.0402169 -0.0468471 0 0 -0.463637 0 0 
128 1 128 0.219948 0.0999862 0 0 -0.0736618 -0.053216 -0.0406559 -0.0463887 0 0 -0.711098 0 0 
129 1 129 0.219927 0.139983 0 0 -0.0931062 -0.0602098 -0.0491331 -0.0362075 0 0 -0.98609 0 0 
130 1 130 0.219912 0.179982 0 0 -0.109401 -0.0525667 -0.0519043 -0.0245711 0 0 -1.13291 0 0 
131 1 131 0.219899 0.219983 0 0 -0.127958 -0.0472443 -0.0561422 -0.0193205 0 0 -1.14777 0 0 
132 1 132 0.219885 0.259985 0 0 -0.153071 -0.055041 -0.0666967 -0.0173092 0 0 -1.13165 0 0 
133 1 133 0.219869 0.299988 0 0 -0.172306 -0.0544001 -0.0726689 -0.0222403 0 0 -0.892074 0 0 
134 1 134 0.219851 0.339993 0 0 -0.184012 -0.0509939 -0.0753391 -0.0171494 0 0 -1.03709 0 0 
135 1 135 0.219833 0.379999 0 0 -0.204729 -0.0543911 -0.0830747 -0.0130873 0 0 -0.995783 0 0 
136 1 136 0.219819 0.420008 0 0 -0.222835 -0.0433998 -0.0853526 0.00305082 0 0 -1.34737 0 0 
137 1 137 0.219809 0.460018 0 0 -0.249273 -0.0421065 -0.0934213 0.00833273 0 0 -1.35839 0 0 
138 1 138 0.219802 0.500031 0 0 -0.286204 -0.0453373 -0.106312 0.021993 0 0 -1.35253 0 0 
139 1 139 0.219792 0.540046 0 0 -0.310615 -0.0426086 -0.113268 0.0172191 0 0 -1.1713 0 0 
140 1 140 0.219777 0.580064 0 0 -0.330071 -0.0548029 -0.123428 0.0234432 0 0 -1.31927 0 0 
141 1 141 0.219763 0.620082 0 0 -0.339404 -0.0420687 -0.122337 0.0206914 0 0 -0.948339 0 0 
142 1 142 0.219749 0.660103 0 0 -0.395911 -0.0775836 -0.151883 0.0268364 0 0 0.160205 0 0 
143 1 143 0.219729 0.700122 0 0 -0.436909 -0.0640095 -0.160694 0.0244169 0 0 1.12406 0 0 
144 1 144 0.219697 0.740147 0 0 -0.47479 -0.0771791 -0.177094 0.0361409 0 0 0.711557 0 0 
145 1 145 0.219658 0.780173 0 0 -0.489045 -0.0388005 -0.169342 0.0224579 0 0 0.50996 0 0 
146 1 146 0.219614 0.820206 0 0 -0.526262 -0.0347413 -0.179992 0.0257654 0 0 -0.0621407 0 0 
147 1 147 0.219568 0.860242 0 0 -0.551572 -0.00971777 -0.180086 0.00705516 0 0 -0.170887 0 0 
148 1 148 0.219513 0.900284 0 0 -0.568348 -0.00658255 -0.184465 0.00108456 0 0 -0.9695 0 0 
149 1 149 0.219458 0.940326 0 0 -0.564392 0.0115868 -0.177381 -0.00895165 0 0 -1.39632 0 0 
150 1 150 0.219402 0.980372 0 0 -0.588567 -0.0033182 -0.189938 -0.00998222 0 0 -0.930103 0 0 
151 1 151 0.259986 0.0199965 0 0 -0.0447559 -0.0665106 -0.0356504 -0.0496748 0 0 -0.439719 0 0 
152 1 152 0.259961 0.0599905 0 0 -0.0572245 -0.0524476 -0.0351332 -0.0495802 0 0 -0.869994 0 0 
153 1 153 0.259939 0.0999877 0 0 -0.0632155 -0.0456794 -0.0348867 -0.0475447 0 0 -0.730534 0 0 
154 1 154 0.259917 0.139985 0 0 -0.0741312 -0.0470358 -0.0388212 -0.0391559 0 0 -0.884216 0 0 
155 1 155 0.259897 0.179985 0 0 -0.0910487 -0.0334947 -0.0399033 -0.0296685 0 0 -1.03507 0 0 
156 1 156 0.259879 0.219988 0 0 -0.121509 -0.0346785 -0.0500432 -0.0245924 0 0 -1.17719 0 0 
157 1 157 0.259862 0.259992 0 0 -0.145072 -0.0360605 -0.0580409 -0.0212828 0 0 -1.16976 0 0 
158 1 158 0.259843 0.299998 0 0 -0.162273 -0.0358679 -0.0635013 -0.025685 0 0 -0.876507 0 0 
159 1 159 0.259821 0.340006 0 0 -0.179553 -0.0382362 -0.0698092 -0.0206963 0 0 -0.971282 0 0 
160 1 160 0.259799 0.380014 0 0 -0.200371 -0.0408376 -0.0773255 -0.021684 0 0 -0.863569 0 0 
161 1 161 0.259777 0.420025 0 0 -0.221242 -0.0287394 -0.0801404 -0.00363237 0 0 -1.4406 0 0 
162 1 162 0.259757 0.460038 0 0 -0.244035 -0.0199918 -0.0846512 -0.000745401 0 0 -1.78879 0 0 
163 1 163 0.259735 0.500056 0 0 -0.260047 -0.00472108 -0.0848913 0.0145041 0 0 -2.24932 0 0 
164 1 164 0.259715 0.540076 0 0 -0.282649 0.000943214 -0.090321 0.0133004 0 0 -1.98117 0 0 
165 1 165 0.259691 0.580098 0 0 -0.327314 -0.0182318 -0.110805 0.0208513 0 0 -1.12123 0 0 
166 1 166 0.259659 0.620119 0 0 -0.358802 -0.0233296 -0.122548 0.024299 0 0 -0.598833 0 0 
167 1 167 0.25962 0.660141 0 0 -0.369339 -0.0374605 -0.130465 0.030885 0 0 -1.00503 0 0 
168 1 168 0.259583 0.700163 0 0 -0.361584 -0.0133831 -0.120244 0.0310311 0 0 -1.67452 0 0 
169 1 169 0.259553 0.74019 0 0 -0.405622 -0.0249352 -0.138093 0.0368093 0 0 -2.00612 0 0 
170 1 170 0.259526 0.78022 0 0 -0.449735 -0.00764171 -0.146706 0.0233881 0 0 -1.71365 0 0 
171 1 171 0.259491 0.820255 0 0 -0.477124 -0.00137009 -0.153483 0.0282985 0 0 -2.43215 0 0 
172 1 172 0.259451 0.860294 0 0 -0.494421 0.0223907 -0.151413 0.00427896 0 0 -2.29234 0 0 
173 1 173 0.259403 0.900335 0 0 -0.528932 0.0104444 -0.166331 0.00529659 0 0 -2.34365 0 0 
174 1 174 0.259354 0.940378 0 0 -0.547296 0.0105962 -0.172206 -0.00598623 0 0 -1.88583 0 0 
175 1 175 0.2593 0.980421 0 0 -0.558074 -0.00405369 -0.180373 -0.00654685 0 0 -1.49441 0 0 
176 1 176 0.299988 0.0199967 0 0 -0.0429365 -0.0607706 -0.0332281 -0.0583858 0 0 -0.544528 0 0 
177 1 177 0.299962 0.0599915 0 0 -0.053516 -0.0457233 -0.0317913 -0.051385 0 0 -1.1287 0 0 
178 1 178 0.299935 0.0999891 0 0 -0.0575054 -0.0396198 -0.0311124 -0.0488766 0 0 -0.968337 0 0 
179 1 179 0.299909 0.139988 0 0 -0.0684476 -0.0351428 -0.0331846 -0.0425763 0 0 -0.905593 0 0 
180 1 180 0.299887 0.179989 0 0 -0.0854168 -0.0218504 -0.0343646 -0.0374792 0 0 -0.847871 0 0 
181 1 181 0.299865 0.219993 0 0 -0.1088 -0.0194598 -0.0410904 -0.0303724 0 0 -1.0329 0 0 
182 1 182 0.299845 0.259999 0 0 -0.129879 -0.0148662 -0.0463733 -0.0262602 0 0 -1.03477 0 0 
183 1 183 0.299822 0.300007 0 0 -0.15408 -0.0187633 -0.0553845 -0.0296495 0 0 -0.894255 0 0 
184 1 184 0.299799 0.340016 0 0 -0.172573 -0.0254333 -0.0634564 -0.0220039 0 0 -1.22272 0 0 
185 1 185 0.299775 0.380026 0 0 -0.186178 -0.0177875 -0.0653704 -0.0247816 0 0 -1.15648 0 0 
186 1 186 0.299753 0.420038 0 0 -0.206454 -0.0073916 -0.068545 -0.00760185 0 0 -1.64991 0 0 
187 1 187 0.299734 0.460055 0 0 -0.233051 0.00757376 -0.0722833 -0.0048956 0 0 -1.61926 0 0 
188 1 188 0.299717 0.500076 0 0 -0.271683 0.0167849 -0.0817261 0.00942893 0 0 -1.50275 0 0 
189 1 189 0.299698 0.5401 0 0 -0.30327 0.0234262 -0.0897243 0.00935313 0 0 -1.3039 0 0 
190 1 190 0.299675 0.580128 0 0 -0.313469 0.0205616 -0.0939103 0.016575 0 0 -1.41476 0 0 
191 1 191 0.299654 0.620157 0 0 -0.322344 0.02356 -0.0957955 0.0154104 0 0 -1.04226 0 0 
192 1 192 0.299633 0.660186 0 0 -0.38353 -0.0160594 -0.12815 0.0183229 0 0 0.0247009 0 0 
193 1 193 0.299605 0.700213 0 0 -0.436474 -0.028992 -0.149305 0.0178472 0 0 0.869274 0 0 
194 1 194 0.299562 0.740243 0 0 -0.467885 -0.0362471 -0.161725 0.0187521 0 0 0.656905 0 0 
195 1 195 0.29951 0.780274 0 0 -0.480824 -0.00961697 -0.157326 0.00791329 0 0 0.106628 0 0 
196 1 196 0.299455 0.820311 0 0 -0.520252 -0.0115449 -0.170607 0.0164509 0 0 -0.747428 0 0 
197 1 197 0.299399 0.86035 0 0 -0.542339 0.00328893 -0.172945 -0.00280551 0 0 -0.585735 0 0 
198 1 198 0.299338 0.900392 0 0 -0.534806 0.00891 -0.168714 0.00968175 0 0 -1.56212 0 0 
199 1 199 0.299281 0.940433 0 0 -0.519986 0.0135002 -0.162498 -0.00337428 0 0 -1.64942 0 0 
200 1 200 0.299223 0.980475 0 0 -0.532986 -0.00502873 -0.172623 -0.000192999 0 0 -1.64312 0 0 
201 1 201 0.339982 0.0199976 0 0 -0.0282739 -0.0462686 -0.0238793 -0.0651587 0 0 -0.644333 0 0 
202 1 202 0.339951 0.0599936 0 0 -0.036402 -0.0316183 -0.0217851 -0.0546096 0 0 -1.26782 0 0 
203 1 203 0.339926 0.099992 0 0 -0.0496066 -0.0316334 -0.0260212 -0.0497128 0 0 -0.964723 0 0 
204 1 204 0.339901 0.139992 0 0 -0.0558189 -0.0178284 -0.0235868 -0.0469398 0 0 -0.928056 0 0 
205 1 205 0.339873 0.179995 0 0 -0.0774154 -0.0125869 -0.0288312 -0.0464558 0 0 -0.900855 0 0 
206 1 206 0.339847 0.22 0 0 -0.107404 -0.00748439 -0.0368066 -0.0392362 0 0 -1.07878 0 0 
207 1 207 0.339822 0.260008 0 0 -0.132557 -0.00492234 -0.0440458 -0.0334996 0 0 -1.29424 0 0 
208 1 208 0.339796 0.300018 0 0 -0.151012 -0.00477948 -0.0499156 -0.0366078 0 0 -1.32264 0 0 
209 1 209 0.339769 0.34003 0 0 -0.173119 -0.0116166 -0.0591995 -0.0277419 0 0 -1.62417 0 0 
210 1 210 0.339741 0.380042 0 0 -0.189206 -0.00226828 -0.0613601 -0.032528 0 0 -1.52349 0 0 
211 1 211 0.339711 0.420058 0 0 -0.212048 0.00673524 -0.0658027 -0.0178754 0 0 -1.89466 0 0 
212 1 212 0.33968 0.460078 0 0 -0.233599 0.0304369 -0.0651187 -0.017323 0 0 -2.09566 0 0 
213 1 213 0.339647 0.500104 0 0 -0.250763 0.0499395 -0.064374 -0.00257206 0 0 -2.53871 0 0 
214 1 214 0.339617 0.540133 0 0 -0.268782 0.0682547 -0.0642753 -0.00203226 0 0 -2.20588 0 0 
215 1 215 0.339586 0.580164 0 0 -0.316654 0.0492665 -0.0857208 0.00924808 0 0 -1.37147 0 0 
216 1 216 0.339548 0.620195 0 0 -0.347931 0.0375943 -0.0995042 0.0108276 0 0 -0.693016 0 0 
217 1 217 0.339502 0.660226 0 0 -0.343857 0.0332457 -0.0995904 0.0145931 0 0 -1.16717 0 0 
218 1 218 0.339457 0.700257 0 0 -0.339608 0.03832 -0.0965992 0.0142425 0 0 -2.05051 0 0 
219 1 219 0.339417 0.74029 0 0 -0.381385 0.027742 -0.113401 0.0119623 0 0 -2.29902 0 0 
220 1 220 0.339378 0.780325 0 0 -0.425872 0.0287872 -0.127347 0.00453058 0 0 -2.22353 0 0 
221 1 221 0.339333 0.820364 0 0 -0.446168 0.0379115 -0.13093 0.0119299 0 0 -2.86409 0 0 
222 1 222 0.339284 0.860406 0 0 -0.46193 0.0474466 -0.132939 -0.00267332 0 0 -2.65909 0 0 
223 1 223 0.339233 0.900449 0 0 -0.48852 0.0326979 -0.146211 0.0155869 0 0 -2.87896 0 0 
224 1 224 0.339184 0.94049 0 0 -0.502991 0.0174437 -0.155773 0.00326826 0 0 -2.1309 0 0 
225 1 225 0.339129 0.98053 0 0 -0.498106 -0.000473793 -0.159952 0.00889573 0 0 -2.4763 0 0 
226 1 226 0.379985 0.0199983 0 0 -0.02566 -0.035148 -0.0194749 -0.0698812 0 0 -0.403991 0 0 
227 1 227 0.379954 0.0599954 0 0 -0.0348188 -0.0248553 -0.0191081 -0.0585545 0 0 -0.912606 0 0 
228 1 228 0.379923 0.0999948 0 0 -0.0457864 -0.0239112 -0.0223215 -0.053172 0 0 -0.83869 0 0 
229 1 229 0.379893 0.139996 0 0 -0.0596877 -0.00977715 -0.0222469 -0.054065 0 0 -0.880585 0 0 
230 1 230 0.379863 0.18 0 0 -0.0849671 -0.00797438 -0.029775 -0.0543449 0 0 -0.892428 0 0 
231 1 231 0.379832 0.220006 0 0 -0.105186 0.0023731 -0.0329395 -0.04713 0 0 -1.20995 0 0 
232 1 232 0.379803 0.260017 0 0 -0.131644 0.00863578 -0.0394115 -0.0401989 0 0 -1.58745 0 0 
233 1 233 0.379773 0.300028 0 0 -0.159009 0.00225996 -0.0502277 -0.0392229 0 0 -1.73155 0 0 
234 1 234 0.379745 0.340041 0 0 -0.173621 0.00713082 -0.053353 -0.0300976 0 0 -1.92522 0 0 
235 1 235 0.379715 0.380057 0 0 -0.189193 0.016602 -0.0553063 -0.0337782 0 0 -1.86154 0 0 
236 1 236 0.379684 0.420075 0 0 -0.212049 0.0241154 -0.0602278 -0.021831 0 0 -2.14814 0 0 
237 1 237 0.379654 0.460098 0 0 -0.236658 0.051283 -0.0594082 -0.0236293 0 0 -1.91097 0 0 
238 1 238 0.379626 0.500126 0 0 -0.279903 0.0552284 -0.0720166 -0.00802171 0 0 -1.7907 0 0 
239 1 239 0.379597 0.540158 0 0 -0.303904 0.0724751 -0.0741818 -0.00821366 0 0 -1.43098 0 0 
240 1 240 0.379567 0.580194 0 0 -0.303314 0.0791803 -0.0718423 0.00072765 0 0 -1.62627 0 0 
241 1 241 0.37954 0.620231 0 0 -0.308983 0.0771383 -0.0743219 -0.00324637 0 0 -1.31106 0 0 
242 1 242 0.379514 0.660268 0 0 -0.362696 0.0499672 -0.100271 -0.0063248 0 0 -0.268868 0 0 
243 1 243 0.379479 0.700304 0 0 -0.423573 0.0233191 -0.128367 -0.011601 0 0 0.626538 0 0 
244 1 244 0.379426 0.740341 0 0 -0.444484 0.0245177 -0.134693 -0.0148609 0 0 0.386563 0 0 
245 1 245 0.379363 0.78038 0 0 -0.455528 0.0333017 -0.13542 -0.0184798 0 0 -0.369832 0 0 
246 1 246 0.379298 0.820421 0 0 -0.489194 0.0370956 -0.145012 -0.00730113 0 0 -0.977117 0 0 
247 1 247 0.379235 0.860464 0 0 -0.506495 0.0364243 -0.150795 -0.009877 0 0 -0.922437 0 0 
248 1 248 0.379174 0.900508 0 0 -0.484973 0.0381057 -0.14334 0.0159952 0 0 -1.87032 0 0 
249 1 249 0.379118 0.940549 0 0 -0.465589 0.0337536 -0.138526 0.00427352 0 0 -1.76366 0 0 
250 1 250 0.379062 0.980588 0 0 -0.467176 0.00451599 -0.148415 0.0146738 0 0 -2.488 0 0 
251 1 251 0.41998 0.0199992 0 0 -0.0125734 -0.0201237 -0.0104654 -0.0748965 0 0 -0.315258 0 0 
252 1 252 0.419944 0.0599975 0 0 -0.0261558 -0.0157339 -0.0134072 -0.066232 0 0 -0.699065 0 0 
253 1 253 0.419914 0.0999979 0 0 -0.0502804 -0.0180209 -0.0218736 -0.0598203 0 0 -0.695216 0 0 
254 1 254 0.419883 0.14 0 0 -0.0636958 -0.00124226 -0.0207974 -0.0628168 0 0 -0.911978 0 0 
255 1 255 0.419847 0.180006 0 0 -0.0864948 0.00109628 -0.0273589 -0.0633981 0 0 -0.962773 0 0 
256 1 256 0.419812 0.220014 0 0 -0.112457 0.00742576 -0.0336527 -0.0577739 0 0 -1.17665 0 0 
257 1 257 0.419778 0.260026 0 0 -0.135606 0.0165618 -0.0381433 -0.0516077 0 0 -1.59018 0 0 
258 1 258 0.419745 0.30004 0 0 -0.158285 0.018192 -0.0448912 -0.0484467 0 0 -1.97377 0 0 
259 1 259 0.419712 0.340057 0 0 -0.181804 0.0213707 -0.0514136 -0.0395883 0 0 -2.15382 0 0 
260 1 260 0.419676 0.380076 0 0 -0.201549 0.0338949 -0.0537261 -0.0448088 0 0 -2.1045 0 0 
261 1 261 0.419637 0.420098 0 0 -0.232057 0.0328139 -0.063857 -0.0348413 0 0 -2.3691 0 0 
262 1 262 0.419596 0.460124 0 0 -0.243205 0.070485 -0.0553504 -0.0366961 0 0 -2.20176 0 0 
263 1 263 0.419552 0.500156 0 0 -0.255079 0.0814759 -0.0556352 -0.0197398 0 0 -2.61519 0 0 
264 1 264 0.419513 0.540191 0 0 -0.264489 0.10522 -0.0510369 -0.019256 0 0 -2.20542 0 0 
265 1 265 0.419475 0.580228 0 0 -0.312896 0.0912278 -0.0710493 -0.00759391 0 0 -1.44749 0 0 
266 1 266 0.419433 0.620265 0 0 -0.347579 0.0784549 -0.0862807 -0.00653703 0 0 -0.929188 0 0 
267 1 267 0.419381 0.660304 0 0 -0.327249 0.0905849 -0.0758654 -0.00542957 0 0 -1.45357 0 0 
268 1 268 0.419329 0.700342 0 0 -0.312339 0.0987057 -0.068477 -0.0132389 0 0 -2.18061 0 0 
269 1 269 0.419281 0.740384 0 0 -0.339669 0.102171 -0.0761292 -0.0180296 0 0 -2.40891 0 0 
270 1 270 0.419232 0.780426 0 0 -0.383728 0.0882909 -0.0947225 -0.023211 0 0 -2.27415 0 0 
271 1 271 0.419178 0.820472 0 0 -0.392999 0.103597 -0.0927857 -0.0150331 0 0 -2.66671 0 0 
272 1 272 0.419124 0.860518 0 0 -0.402647 0.0949571 -0.0986644 -0.0111067 0 0 -2.70014 0 0 
273 1 273 0.419075 0.900564 0 0 -0.430503 0.0706385 -0.11541 0.0120295 0 0 -2.69664 0 0 
274 1 274 0.419028 0.940606 0 0 -0.449775 0.04134 -0.131013 0.00547436 0 0 -2.09661 0 0 
275 1 275 0.418978 0.980644 0 0 -0.43536 0.0136332 -0.13527 0.0206938 0 0 -3.2118 0 0 
276 1 276 0.459983 0.0199996 0 0 -0.014057 -0.0138155 -0.00892122 -0.0782493 0 0 0.032963 0 0 
277 1 277 0.459947 0.0599987 0 0 -0.0283725 -0.0114562 -0.0127469 -0.0726389 0 0 -0.185336 0 0 
278 1 278 0.45991 0.1 0 0 -0.0488366 -0.00710815 -0.0179143 -0.0677319 0 0 -0.546545 0 0 
279 1 279 0.459872 0.140005 0 0 -0.0738679 0.00316504 -0.0226469 -0.0714506 0 0 -0.754795 0 0 
280 1 280 0.459834 0.180012 0 0 -0.0973716 0.00521154 -0.0295268 -0.0709137 0 0 -0.680698 0 0 
281 1 281 0.459795 0.220021 0 0 -0.116191 0.014443 -0.0325993 -0.0678377 0 0 -1.04795 0 0 
282 1 282 0.459756 0.260034 0 0 -0.142888 0.0211121 -0.0390192 -0.0600825 0 0 -1.56518 0 0 
283 1 283 0.459719 0.30005 0 0 -0.164684 0.0322984 -0.0424194 -0.0551764 0 0 -1.98432 0 0 
284 1 284 0.459683 0.340069 0 0 -0.187215 0.0384042 -0.0476856 -0.0470077 0 0 -2.17982 0 0 
285 1 285 0.459645 0.380091 0 0 -0.205989 0.0542163 -0.0486332 -0.050284 0 0 -2.1739 0 0 
286 1 286 0.459605 0.420116 0 0 -0.22966 0.0596951 -0.0544657 -0.0412421 0 0 -2.17222 0 0 
287 1 287 0.459565 0.460146 0 0 -0.251829 0.0852459 -0.0533848 -0.0421657 0 0 -1.66457 0 0 
288 1 288 0.459527 0.50018 0 0 -0.302001 0.0744268 -0.0729491 -0.0251751 0 0 -1.65904 0 0 
289 1 289 0.45949 0.540216 0 0 -0.326508 0.0881186 -0.0764142 -0.0214913 0 0 -1.27787 0 0 
290 1 290 0.459453 0.580257 0 0 -0.314744 0.101868 -0.0682282 -0.0112793 0 0 -1.54162 0 0 
291 1 291 0.459421 0.620299 0 0 -0.31155 0.110192 -0.0645387 -0.016118 0 0 -1.37949 0 0 
292 1 292 0.459391 0.660342 0 0 -0.363362 0.0950161 -0.086028 -0.0219756 0 0 -0.417334 0 0 
293 1 293 0.459349 0.700386 0 0 -0.428001 0.0660388 -0.116073 -0.0350388 0 0 0.582914 0 0 
294 1 294 0.459289 0.74043 0 0 -0.430074 0.0838476 -0.111018 -0.037427 0 0 0.273606 0 0 
295 1 295 0.459219 0.780476 0 0 -0.425242 0.0882959 -0.108045 -0.0442518 0 0 -0.169385 0 0 
296 1 296 0.459148 0.820524 0 0 -0.441694 0.0952006 -0.111107 -0.0342938 0 0 -0.493149 0 0 
297 1 297 0.459082 0.860571 0 0 -0.452047 0.0782647 -0.119876 -0.0216994 0 0 -0.813476 0 0 
298 1 298 0.459022 0.900617 0 0 -0.425264 0.0768271 -0.11174 -0.000323209 0 0 -1.56598 0 0 
299 1 299 0.458968 0.940659 0 0 -0.409798 0.0603323 -0.11208 -0.00437649 0 0 -1.84735 0 0 
300 1 300 0.458919 0.980698 0 0 -0.414437 0.0194438 -0.126685 0.0144034 0 0 -3.04597 0 0 
301 1 301 0.499978 0.02 0 0 -0.00969384 -0.00741715 -0.00547388 -0.0840883 0 0 0.132331 0 0 
302 1 302 0.499937 0.0600003 0 0 -0.0336994 -0.00722489 -0.0130995 -0.0832936 0 0 0.048575 0 0 
303 1 303 0.499899 0.100003 0 0 -0.0639689 -0.00242471 -0.0212648 -0.0785875 0 0 -0.262123 0 0 
304 1 304 0.499859 0.140009 0 0 -0.0807347 0.0103567 -0.0225433 -0.0790472 0 0 -0.596248 0 0 
305 1 305 0.499816 0.180018 0 0 -0.0965924 0.0144654 -0.0263112 -0.0763652 0 0 -0.673038 0 0 
306 1 306 0.499772 0.220029 0 0 -0.115594 0.0240461 -0.0293299 -0.0764269 0 0 -0.854934 0 0 
307 1 307 0.49973 0.260044 0 0 -0.13754 0.0320858 -0.0337848 -0.068937 0 0 -1.21484 0 0 
308 1 308 0.499688 0.300061 0 0 -0.157822 0.0485749 -0.0349985 -0.0655415 0 0 -1.68056 0 0 
309 1 309 0.499646 0.340083 0 0 -0.189174 0.0563691 -0.0425502 -0.0615258 0 0 -1.79538 0 0 
310 1 310 0.499601 0.380109 0 0 -0.215273 0.0731309 -0.0455418 -0.0639411 0 0 -1.86436 0 0 
311 1 311 0.499553 0.42014 0 0 -0.246092 0.0779325 -0.0538855 -0.057467 0 0 -1.93839 0 0 
312 1 312 0.499501 0.460173 0 0 -0.265948 0.0970538 -0.0541269 -0.0590938 0 0 -1.71879 0 0 
313 1 313 0.499448 0.500211 0 0 -0.276397 0.103336 -0.0554664 -0.0398997 0 0 -2.24387 0 0 
314 1 314 0.499401 0.54025 0 0 -0.283536 0.12372 -0.0512141 -0.0323339 0 0 -1.86641 0 0 
315 1 315 0.499357 0.580291 0 0 -0.338592 0.101927 -0.0758591 -0.01712 0 0 -1.35209 0 0 
316 1 316 0.499309 0.620333 0 0 -0.374859 0.0962576 -0.0893161 -0.0141001 0 0 -1.02136 0 0 
317 1 317 0.499253 0.660377 0 0 -0.343172 0.122257 -0.0708102 -0.0126851 0 0 -1.70324 0 0 
318 1 318 0.499196 0.700422 0 0 -0.308062 0.142351 -0.0531068 -0.0272373 0 0 -2.32172 0 0 
319 1 319 0.499143 0.74047 0 0 -0.31775 0.154836 -0.0522079 -0.0305576 0 0 -2.57632 0 0 
320 1 320 0.499089 0.780519 0 0 -0.351519 0.134984 -0.0694103 -0.0420418 0 0 -2.16278 0 0 
321 1 321 0.499032 0.820568 0 0 -0.339816 0.148419 -0.0613434 -0.0362487 0 0 -2.33334 0 0 
322 1 322 0.498977 0.860617 0 0 -0.341017 0.129787 -0.0677121 -0.0253544 0 0 -2.44916 0 0 
323 1 323 0.498929 0.900663 0 0 -0.375858 0.0993184 -0.0886634 -0.0120659 0 0 -2.16455 0 0 
324 1 324 0.498885 0.940705 0 0 -0.403357 0.0583903 -0.110631 -0.0112438 0 0 -2.13365 0 0 
325 1 325 0.498842 0.980743 0 0 -0.392842 0.02774 -0.117086 0.00900144 0 0 -3.42397 0 0 
326 1 326 0.539981 0.0199999 0 0 -0.0207987 -0.0110195 -0.0101865 -0.0912574 0 0 0.271895 0 0 