ITEM: TIMESTEP
0
ITEM: NUMBER OF ATOMS
6875
ITEM: BOX BOUNDS sm sm sm
0 4
0 2
0 0
ITEM: ATOMS id type tag x y z damage s11 s22 s33 s12 s13 s23 vx T ienergy 
1 1 1 0.0199994 0.02 0 0 -0.00407989 -0.00420349 -0.00264885 -0.00149192 0 0 -0.269325 0 0 
2 1 2 0.0200001 0.0599983 0 0 -0.00169843 -0.0153794 -0.00546114 -0.00320445 0 0 -0.393621 0 0 
3 1 3 0.0200007 0.0999963 0 0 0.0182156 -0.00411709 0.00452568 -0.0141437 0 0 -0.466149 0 0 
4 1 4 0.0200025 0.139994 0 0 0.0357882 0.00137586 0.0119131 -0.0219387 0 0 0.0458184 0 0 
5 1 5 0.0200035 0.179992 0 0 0.0567465 0.0140174 0.0226762 -0.0333177 0 0 0.13592 0 0 
6 1 6 0.0200041 0.219989 0 0 0.0584248 0.0113695 0.0223667 -0.045466 0 0 0.449618 0 0 
7 1 7 0.0200049 0.259988 0 0 0.0834248 0.0378533 0.0388551 -0.0458897 0 0 0.572127 0 0 
8 1 8 0.020007 0.299988 0 0 0.108418 0.0475877 0.049976 -0.0504894 0 0 0.80083 0 0 
9 1 9 0.0200083 0.339988 0 0 0.13923 0.0647463 0.0653336 -0.0483037 0 0 0.567561 0 0 
10 1 10 0.0200106 0.379986 0 0 0.165597 0.0655205 0.0740212 -0.0554352 0 0 0.391972 0 0 
11 1 11 0.0200119 0.419985 0 0 0.194622 0.0868699 0.0901394 -0.0611578 0 0 0.468335 0 0 
12 1 12 0.0200129 0.459984 0 0 0.205744 0.0922039 0.0954028 -0.0681206 0 0 0.27954 0 0 
13 1 13 0.0200116 0.499985 0 0 0.207896 0.114157 0.103112 -0.0662203 0 0 0.18235 0 0 
14 1 14 0.0200106 0.539987 0 0 0.194394 0.10226 0.0949852 -0.0549835 0 0 -0.207691 0 0 
15 1 15 0.0200089 0.579989 0 0 0.188994 0.10443 0.0939502 -0.0477026 0 0 -0.366895 0 0 
16 1 16 0.020008 0.61999 0 0 0.174888 0.0764574 0.0804863 -0.0410361 0 0 -1.07579 0 0 
17 1 17 0.0200057 0.659989 0 0 0.146179 0.0626314 0.0668738 -0.0558459 0 0 -0.757216 0 0 
18 1 18 0.0200038 0.699988 0 0 0.112071 0.0507064 0.0521392 -0.0501565 0 0 -0.965602 0 0 
19 1 19 0.0200008 0.739989 0 0 0.062014 0.0443316 0.0340721 -0.0605793 0 0 0.187105 0 0 
20 1 20 0.0199988 0.779992 0 0 0.0206714 0.031888 0.0168465 -0.0291632 0 0 -0.0616394 0 0 
21 1 21 0.0199992 0.819997 0 0 0.0253027 0.051988 0.0247687 -0.0163819 0 0 0.847414 0 0 
22 1 22 0.019999 0.860002 0 0 -0.00399262 0.0167947 0.00411118 0.00925116 0 0 0.825555 0 0 
23 1 23 0.0200013 0.900005 0 0 0.0429368 0.0372917 0.0257087 0.0327064 0 0 0.0885429 0 0 
24 1 24 0.0200063 0.940004 0 0 0.0864847 0.0177842 0.0334041 0.0246592 0 0 0.235819 0 0 
25 1 25 0.0200072 0.980001 0 0 0.136906 0.0232999 0.0413405 -0.00608781 0 0 -0.209285 0 0 
26 1 26 0.0599997 0.0199989 0 0 -0.00106693 -0.0143683 -0.00493977 -0.00265729 0 0 -0.398599 0 0 
27 1 27 0.060003 0.059994 0 0 -0.00507017 -0.0465524 -0.0165347 -0.00296316 0 0 -0.0769133 0 0 
28 1 28 0.0600056 0.0999879 0 0 0.0146066 -0.0254474 -0.00346553 -0.0141186 0 0 0.160529 0 0 
29 1 29 0.06001 0.139982 0 0 0.0235405 -0.035198 -0.00372526 -0.0164152 0 0 0.81904 0 0 
30 1 30 0.0600124 0.179975 0 0 0.0481866 -0.0105287 0.0120722 -0.0296652 0 0 0.726324 0 0 
31 1 31 0.0600148 0.219969 0 0 0.0580389 -0.0157537 0.0135546 -0.0389991 0 0 1.50051 0 0 
32 1 32 0.0600163 0.259965 0 0 0.0860416 0.0333868 0.0382605 -0.0370644 0 0 1.87326 0 0 
33 1 33 0.060021 0.299963 0 0 0.0887847 0.024608 0.0363281 -0.0429249 0 0 2.40703 0 0 
34 1 34 0.0600257 0.339962 0 0 0.126035 0.0537056 0.0575706 -0.0395364 0 0 2.28088 0 0 
35 1 35 0.0600332 0.379958 0 0 0.154455 0.0406058 0.0624762 -0.0455263 0 0 2.0015 0 0 
36 1 36 0.060037 0.419955 0 0 0.184414 0.0730783 0.0824563 -0.0586904 0 0 2.24465 0 0 
37 1 37 0.0600382 0.459952 0 0 0.173639 0.0652055 0.0764869 -0.0676438 0 0 1.58963 0 0 
38 1 38 0.0600346 0.499954 0 0 0.172411 0.118635 0.0931882 -0.0812407 0 0 1.5879 0 0 
39 1 39 0.060033 0.539959 0 0 0.14545 0.09171 0.0759466 -0.0618053 0 0 0.941141 0 0 
40 1 40 0.060033 0.579963 0 0 0.15262 0.106944 0.0831159 -0.0710159 0 0 1.83417 0 0 
41 1 41 0.0600341 0.619966 0 0 0.140081 0.0623888 0.0648451 -0.0489613 0 0 1.23272 0 0 
42 1 42 0.0600315 0.659964 0 0 0.132191 0.051272 0.0587619 -0.081692 0 0 2.64516 0 0 
43 1 43 0.0600222 0.699964 0 0 0.0877475 0.0522593 0.0448503 -0.0586719 0 0 1.78143 0 0 
44 1 44 0.0600116 0.739969 0 0 0.0542806 0.0708386 0.0400838 -0.077453 0 0 2.73309 0 0 
45 1 45 0.0599997 0.779978 0 0 -0.000997223 0.068241 0.0215488 -0.0311202 0 0 2.03697 0 0 
46 1 46 0.0599974 0.819992 0 0 -0.00618135 0.0965071 0.0289433 -0.0162142 0 0 1.97239 0 0 
47 1 47 0.0599968 0.860004 0 0 -0.00281433 0.0528638 0.0160408 0.00511466 0 0 2.31623 0 0 
48 1 48 0.0600056 0.900013 0 0 0.0541394 0.0824681 0.0437646 0.0500267 0 0 0.86301 0 0 
49 1 49 0.0600193 0.940016 0 0 0.0749784 0.00200392 0.0246742 0.0465464 0 0 1.44283 0 0 
50 1 50 0.0600273 0.980007 0 0 0.150806 0.00681323 0.0504904 0.0355125 0 0 0.0449663 0 0 
51 1 51 0.1 0.0199962 0 0 -0.0164378 -0.0494625 -0.0211233 -0.0014842 0 0 -0.831205 0 0 
52 1 52 0.100005 0.0599884 0 0 -0.00918266 -0.0679123 -0.0247043 -0.000748441 0 0 -0.801923 0 0 
53 1 53 0.100009 0.0999786 0 0 0.00966744 -0.0457913 -0.0115685 -0.0133356 0 0 -0.232514 0 0 
54 1 54 0.100015 0.13997 0 0 0.00468429 -0.0652899 -0.019413 -0.0103925 0 0 0.120656 0 0 
55 1 55 0.100019 0.17996 0 0 0.0279271 -0.0323879 -0.00142181 -0.0217722 0 0 0.298158 0 0 
56 1 56 0.100024 0.219953 0 0 0.0373144 -0.0382306 -0.00028429 -0.0233185 0 0 1.33112 0 0 
57 1 57 0.100026 0.259945 0 0 0.0598057 0.00366726 0.0203415 -0.0308463 0 0 2.11914 0 0 
58 1 58 0.100032 0.299942 0 0 0.0681744 0.00272071 0.0227166 -0.024764 0 0 3.00337 0 0 
59 1 59 0.100041 0.339937 0 0 0.104218 0.0254713 0.0415442 -0.0228803 0 0 3.3926 0 0 
60 1 60 0.100053 0.379933 0 0 0.132137 0.0291245 0.0516543 -0.022801 0 0 3.0922 0 0 
61 1 61 0.100059 0.419928 0 0 0.15009 0.0438604 0.0621184 -0.0499267 0 0 3.41957 0 0 
62 1 62 0.100058 0.459924 0 0 0.141912 0.0500711 0.061486 -0.0537574 0 0 2.64688 0 0 
63 1 63 0.100051 0.499925 0 0 0.144149 0.091179 0.0753576 -0.0812858 0 0 2.71019 0 0 
64 1 64 0.100045 0.539929 0 0 0.120814 0.0835671 0.0654556 -0.0563451 0 0 1.38507 0 0 
65 1 65 0.100044 0.579932 0 0 0.127885 0.0798062 0.0665167 -0.0728568 0 0 1.40269 0 0 
66 1 66 0.100044 0.619936 0 0 0.128603 0.081673 0.0673444 -0.0572359 0 0 0.115526 0 0 
67 1 67 0.10004 0.659937 0 0 0.107555 0.0430814 0.0482546 -0.090582 0 0 0.479546 0 0 
68 1 68 0.100024 0.69994 0 0 0.0853122 0.0865434 0.0550469 -0.0900076 0 0 0.69294 0 0 
69 1 69 0.100006 0.73995 0 0 0.0157737 0.0807815 0.0309369 -0.0906315 0 0 1.30341 0 0 
70 1 70 0.0999899 0.779964 0 0 -0.0038205 0.100949 0.0311188 -0.0583467 0 0 2.26175 0 0 
71 1 71 0.0999847 0.819983 0 0 -0.017937 0.128161 0.0353139 -0.0278401 0 0 2.094 0 0 
72 1 72 0.0999885 0.86 0 0 -0.0295135 0.0545014 0.00801131 -0.00329919 0 0 1.65341 0 0 
73 1 73 0.100005 0.900013 0 0 0.0364256 0.117723 0.0493801 0.0348799 0 0 0.902384 0 0 
74 1 74 0.100029 0.940021 0 0 0.0629373 0.0211013 0.0269395 0.0474799 0 0 1.24486 0 0 
75 1 75 0.100051 0.980014 0 0 0.152419 0.0028544 0.0497448 0.0552932 0 0 -0.561627 0 0 
76 1 76 0.140001 0.0199939 0 0 -0.0388919 -0.0904296 -0.0414515 0.0044723 0 0 -0.765575 0 0 
77 1 77 0.140008 0.0599828 0 0 -0.0341584 -0.0922576 -0.0405149 0.00619493 0 0 -0.810333 0 0 
78 1 78 0.140014 0.0999698 0 0 -0.0274463 -0.0864806 -0.0365129 -0.0110441 0 0 0.0565047 0 0 
79 1 79 0.14002 0.139959 0 0 -0.0184696 -0.0786986 -0.0311377 -0.00322852 0 0 0.293332 0 0 
80 1 80 0.140026 0.179949 0 0 0.00431863 -0.0491835 -0.0143714 -0.00992251 0 0 0.540505 0 0 
81 1 81 0.140031 0.219941 0 0 0.0147573 -0.0426038 -0.00891501 -0.00626276 0 0 1.3005 0 0 
82 1 82 0.140035 0.259933 0 0 0.030216 -0.030869 -0.000201134 -0.0113252 0 0 2.66403 0 0 
83 1 83 0.140043 0.299927 0 0 0.0592145 -0.00279843 0.0180797 0.00453468 0 0 4.12716 0 0 
84 1 84 0.140055 0.339921 0 0 0.0670335 -0.0173844 0.0159127 0.00651869 0 0 4.70673 0 0 
85 1 85 0.140069 0.379914 0 0 0.0862372 0.0133968 0.0319235 0.00392425 0 0 4.61787 0 0 
86 1 86 0.140077 0.419909 0 0 0.0846753 0.00207064 0.027797 -0.0271369 0 0 4.85536 0 0 
87 1 87 0.140075 0.459905 0 0 0.0886623 0.0316529 0.0385442 -0.0392532 0 0 4.46712 0 0 
88 1 88 0.140066 0.499904 0 0 0.0810225 0.0285601 0.0351063 -0.0600801 0 0 4.20748 0 0 
89 1 89 0.140059 0.539903 0 0 0.0815577 0.0484054 0.0416336 -0.0493164 0 0 3.54946 0 0 
90 1 90 0.14006 0.579904 0 0 0.0596782 0.0238628 0.0267689 -0.0489053 0 0 3.50357 0 0 
91 1 91 0.140062 0.619905 0 0 0.0663315 0.0506515 0.0374773 -0.0597265 0 0 3.26859 0 0 
92 1 92 0.140055 0.659908 0 0 0.0265716 0.0288676 0.0177678 -0.0869138 0 0 3.03856 0 0 
93 1 93 0.140035 0.699913 0 0 0.0204466 0.0589794 0.0254499 -0.113859 0 0 3.1765 0 0 
94 1 94 0.140005 0.739926 0 0 -0.000574683 0.103127 0.0328562 -0.119863 0 0 3.23195 0 0 
95 1 95 0.139983 0.779942 0 0 -0.0451519 0.0732728 0.00901584 -0.0848789 0 0 2.60972 0 0 
96 1 96 0.139974 0.819962 0 0 -0.0103712 0.151948 0.0453526 -0.0692875 0 0 2.86137 0 0 
97 1 97 0.139979 0.859982 0 0 -0.0440461 0.0650879 0.00675169 -0.0217839 0 0 1.38224 0 0 
98 1 98 0.14 0.899997 0 0 -0.00212355 0.0991645 0.031097 1.30555e-05 0 0 1.0302 0 0 
99 1 99 0.140034 0.940007 0 0 0.03069 0.0472493 0.0249776 0.0367884 0 0 0.768391 0 0 
100 1 100 0.140072 0.980007 0 0 0.118337 0.0246135 0.045795 0.0328481 0 0 -0.442012 0 0 
101 1 101 0.180002 0.0199921 0 0 -0.0594949 -0.124748 -0.0590524 0.00524528 0 0 -0.882788 0 0 
102 1 102 0.180008 0.0599776 0 0 -0.0557826 -0.114796 -0.0546714 0.00737169 0 0 -1.33731 0 0 
103 1 103 0.180014 0.0999631 0 0 -0.0466932 -0.106836 -0.0492102 -0.00188169 0 0 -0.660896 0 0 
104 1 104 0.180021 0.139952 0 0 -0.0325889 -0.0779589 -0.0354294 0.00704252 0 0 -0.301328 0 0 
105 1 105 0.180027 0.179942 0 0 -0.0281171 -0.0612084 -0.0286247 0.00580961 0 0 0.033034 0 0 
106 1 106 0.180034 0.219936 0 0 -0.0135522 -0.0399701 -0.0171448 0.0100283 0 0 0.978597 0 0 
107 1 107 0.18004 0.259929 0 0 0.00401155 -0.0442291 -0.0128795 0.0167235 0 0 2.66861 0 0 
108 1 108 0.180051 0.299922 0 0 0.0322217 -0.0285806 0.00117368 0.0276487 0 0 4.28288 0 0 
109 1 109 0.180065 0.339914 0 0 0.0338402 -0.0405428 -0.00213952 0.0296891 0 0 5.02239 0 0 
110 1 110 0.180079 0.379906 0 0 0.0380307 -0.0249101 0.00421434 0.0203928 0 0 5.38172 0 0 
111 1 111 0.180087 0.4199 0 0 0.0383493 -0.0147533 0.0075714 -0.00666846 0 0 5.45205 0 0 
112 1 112 0.180084 0.459895 0 0 0.0384695 -0.0107744 0.00888222 -0.0316042 0 0 5.37129 0 0 
113 1 113 0.180074 0.49989 0 0 0.0338713 -0.015405 0.00592436 -0.0458257 0 0 4.65464 0 0 
114 1 114 0.180065 0.539885 0 0 0.0422712 -0.0145004 0.00890575 -0.0438739 0 0 3.67116 0 0 
115 1 115 0.180063 0.579881 0 0 0.0448722 0.00438965 0.0157887 -0.0447305 0 0 2.76899 0 0 
116 1 116 0.180061 0.619879 0 0 0.0386338 0.00774666 0.0148633 -0.0566637 0 0 1.28183 0 0 
117 1 117 0.180051 0.659881 0 0 0.0512363 0.0630008 0.0365953 -0.0970121 0 0 1.01871 0 0 
118 1 118 0.180026 0.699887 0 0 0.00842056 0.0386126 0.0150729 -0.119396 0 0 0.800461 0 0 
119 1 119 0.179994 0.739897 0 0 0.0186216 0.102766 0.0388874 -0.141958 0 0 1.6613 0 0 
120 1 120 0.179968 0.779912 0 0 -0.0193573 0.0774552 0.0186197 -0.102016 0 0 1.42545 0 0 
121 1 121 0.179959 0.819928 0 0 -0.0284351 0.103409 0.0240264 -0.0913813 0 0 1.50422 0 0 
122 1 122 0.179966 0.859947 0 0 -0.0172539 0.109795 0.0296545 -0.0494055 0 0 0.435185 0 0 
123 1 123 0.179991 0.899963 0 0 -0.0204869 0.0709119 0.0161651 -0.0262986 0 0 0.430888 0 0 
124 1 124 0.180031 0.939974 0 0 -0.00436346 0.0528078 0.0155247 0.0234826 0 0 -0.46745 0 0 
125 1 125 0.180082 0.979979 0 0 0.0312756 0.0202217 0.0165034 0.0199065 0 0 -0.960984 0 0 
126 1 126 0.220001 0.01999 0 0 -0.087349 -0.161926 -0.0799135 0.00182742 0 0 -0.489412 0 0 
127 1 127 0.220007 0.0599738 0 0 -0.0873005 -0.126969 -0.0686795 0.010142 0 0 -0.391169 0 0 
128 1 128 0.220013 0.0999605 0 0 -0.0841943 -0.114657 -0.0637388 0.0123706 0 0 0.0723359 0 0 
129 1 129 0.220019 0.139951 0 0 -0.0743675 -0.0844921 -0.0509182 0.0187045 0 0 0.311083 0 0 
130 1 130 0.220025 0.179944 0 0 -0.0688594 -0.0662788 -0.0433128 0.0273308 0 0 0.473099 0 0 
131 1 131 0.220033 0.219939 0 0 -0.043499 -0.0444301 -0.0281747 0.033937 0 0 1.31494 0 0 
132 1 132 0.220043 0.259934 0 0 -0.0223436 -0.0497719 -0.0231041 0.0420502 0 0 2.90958 0 0 
133 1 133 0.220057 0.299925 0 0 -0.0129803 -0.0777562 -0.0290724 0.0453883 0 0 4.41238 0 0 
134 1 134 0.220072 0.339915 0 0 0.0043761 -0.0517535 -0.015175 0.0404709 0 0 5.63716 0 0 
135 1 135 0.220086 0.379906 0 0 -0.0184909 -0.0747217 -0.0298643 0.0278013 0 0 6.2381 0 0 
136 1 136 0.220091 0.419897 0 0 -0.0178748 -0.0447735 -0.0200675 0.000571764 0 0 6.24457 0 0 
137 1 137 0.220088 0.45989 0 0 -0.0237142 -0.0647225 -0.0283352 -0.0227444 0 0 6.15044 0 0 
138 1 138 0.220081 0.49988 0 0 -0.00579648 -0.0721967 -0.0249874 -0.0378906 0 0 5.70785 0 0 
139 1 139 0.220075 0.539869 0 0 0.007714 -0.0657132 -0.0185785 -0.0402435 0 0 5.0431 0 0 
140 1 140 0.220073 0.579859 0 0 -0.000599479 -0.0571 -0.0184838 -0.0531396 0 0 4.76596 0 0 
141 1 141 0.22007 0.619853 0 0 -0.0278477 -0.0342795 -0.0199057 -0.0678733 0 0 3.70655 0 0 
142 1 142 0.220056 0.659854 0 0 -0.032454 0.0168126 -0.00500807 -0.106056 0 0 3.27841 0 0 
143 1 143 0.220029 0.699859 0 0 -0.0354334 0.0215476 -0.00444337 -0.130249 0 0 2.82109 0 0 
144 1 144 0.219993 0.739867 0 0 -0.0239678 0.0489117 0.00799965 -0.143145 0 0 2.38872 0 0 
145 1 145 0.219963 0.779878 0 0 -0.0142272 0.0690427 0.0175701 -0.112278 0 0 1.42207 0 0 
146 1 146 0.21995 0.81989 0 0 -0.0334053 0.0556677 0.00714242 -0.0962801 0 0 1.07907 0 0 
147 1 147 0.219956 0.859903 0 0 -0.0387131 0.0757875 0.0118859 -0.0502369 0 0 -0.659987 0 0 
148 1 148 0.219982 0.899917 0 0 -0.0512001 0.0481594 -0.000966292 -0.0466559 0 0 -0.479995 0 0 
149 1 149 0.220024 0.939927 0 0 -0.0479838 0.0360291 -0.00382571 0.010752 0 0 -1.49187 0 0 
150 1 150 0.220079 0.979936 0 0 -0.0576202 0.0216854 -0.0115073 0.00807352 0 0 -1.10709 0 0 
151 1 151 0.259998 0.0199889 0 0 -0.105165 -0.18247 -0.0922244 -0.00481993 0 0 -0.257814 0 0 
152 1 152 0.26 0.0599732 0 0 -0.104686 -0.120763 -0.072265 0.0122544 0 0 -0.0330526 0 0 
153 1 153 0.260005 0.0999618 0 0 -0.112125 -0.114768 -0.0727307 0.0188832 0 0 -0.104076 0 0 
154 1 154 0.26001 0.139955 0 0 -0.0971578 -0.0701159 -0.0536126 0.0207133 0 0 0.285936 0 0 
155 1 155 0.260016 0.179952 0 0 -0.100448 -0.0650613 -0.0530484 0.0361745 0 0 0.78064 0 0 
156 1 156 0.260026 0.219949 0 0 -0.0823624 -0.0584545 -0.045129 0.0493181 0 0 1.42958 0 0 
157 1 157 0.260041 0.259943 0 0 -0.0521846 -0.0692729 -0.0389206 0.0578126 0 0 2.99769 0 0 
158 1 158 0.260059 0.299933 0 0 -0.0386982 -0.1061 -0.0464042 0.0588835 0 0 4.3515 0 0 
159 1 159 0.260075 0.339921 0 0 -0.0187729 -0.0745882 -0.0299135 0.0442984 0 0 5.77377 0 0 
160 1 160 0.260086 0.379909 0 0 -0.0477791 -0.0995026 -0.0472004 0.0270447 0 0 6.26899 0 0 
161 1 161 0.26009 0.419898 0 0 -0.0490139 -0.0863301 -0.0433741 0.00522746 0 0 6.1074 0 0 
162 1 162 0.260089 0.459888 0 0 -0.0306142 -0.0803528 -0.035562 -0.0121638 0 0 6.03494 0 0 
163 1 163 0.260084 0.499873 0 0 -0.0234625 -0.131899 -0.0497948 -0.0207312 0 0 5.23842 0 0 
164 1 164 0.260081 0.539855 0 0 0.0188354 -0.0893468 -0.0225911 -0.0343091 0 0 4.33384 0 0 
165 1 165 0.260074 0.57984 0 0 0.0102767 -0.0907497 -0.0257834 -0.0501782 0 0 2.9954 0 0 
166 1 166 0.260064 0.619828 0 0 0.00940841 -0.03814 -0.00920205 -0.0717691 0 0 1.33615 0 0 
167 1 167 0.260045 0.659828 0 0 0.0095989 0.0396478 0.0157814 -0.105236 0 0 0.487054 0 0 
168 1 168 0.260016 0.699832 0 0 -0.0144726 0.0129131 -0.000492174 -0.120683 0 0 -0.144262 0 0 
169 1 169 0.259983 0.739838 0 0 0.0247643 0.064763 0.0286864 -0.137508 0 0 0.383751 0 0 
170 1 170 0.259955 0.779845 0 0 0.00105745 0.0327773 0.0108487 -0.112658 0 0 -0.303292 0 0 
171 1 171 0.259941 0.819851 0 0 -0.0114026 0.0362668 0.00797486 -0.103944 0 0 -0.391591 0 0 
172 1 172 0.259946 0.859858 0 0 -0.0108615 0.0502173 0.0126144 -0.054212 0 0 -1.5562 0 0 
173 1 173 0.25997 0.899865 0 0 -0.0571139 -0.00164936 -0.0188249 -0.0492651 0 0 -1.55166 0 0 
174 1 174 0.26001 0.939873 0 0 -0.0862252 0.0352689 -0.0163241 -0.00758639 0 0 -2.68693 0 0 
175 1 175 0.260061 0.979886 0 0 -0.152889 0.0104088 -0.0456585 -0.0117918 0 0 -1.66441 0 0 
176 1 176 0.299996 0.0199897 0 0 -0.105601 -0.175006 -0.0899701 -0.0158928 0 0 0.431962 0 0 
177 1 177 0.299992 0.0599751 0 0 -0.121939 -0.119922 -0.0775338 0.00671976 0 0 1.30074 0 0 
178 1 178 0.299994 0.0999652 0 0 -0.157274 -0.127986 -0.091457 0.0168551 0 0 0.888472 0 0 
179 1 179 0.299997 0.139961 0 0 -0.141483 -0.0675171 -0.0669928 0.0181137 0 0 1.19773 0 0 
180 1 180 0.300003 0.17996 0 0 -0.141697 -0.0794182 -0.0708799 0.0322267 0 0 1.86251 0 0 
181 1 181 0.300016 0.219957 0 0 -0.115694 -0.073241 -0.0605567 0.0503735 0 0 2.4038 0 0 
182 1 182 0.300037 0.259952 0 0 -0.0828539 -0.0871688 -0.0544905 0.0638806 0 0 3.74416 0 0 
183 1 183 0.300059 0.299941 0 0 -0.070412 -0.1222 -0.0617355 0.0602295 0 0 4.77813 0 0 
184 1 184 0.300076 0.339928 0 0 -0.0603747 -0.106199 -0.0533848 0.0407154 0 0 5.99814 0 0 
185 1 185 0.300085 0.379915 0 0 -0.0786027 -0.121354 -0.0640908 0.0233749 0 0 6.52009 0 0 
186 1 186 0.300088 0.419901 0 0 -0.0749554 -0.116512 -0.0613705 0.0166936 0 0 6.39854 0 0 
187 1 187 0.300091 0.459888 0 0 -0.0450415 -0.111468 -0.0501646 0.00642309 0 0 6.27899 0 0 
188 1 188 0.300092 0.499869 0 0 -0.0352597 -0.157919 -0.0619241 0.00194494 0 0 5.50402 0 0 
189 1 189 0.300093 0.539847 0 0 -0.00923834 -0.140795 -0.0480855 -0.0119879 0 0 4.99357 0 0 
190 1 190 0.300087 0.579827 0 0 -0.0117544 -0.111252 -0.039418 -0.0392877 0 0 4.38228 0 0 
191 1 191 0.300072 0.619813 0 0 -0.0578481 -0.100754 -0.0508311 -0.0590544 0 0 3.18985 0 0 
192 1 192 0.300048 0.659808 0 0 -0.044286 0.0020906 -0.0135142 -0.0927667 0 0 2.61956 0 0 
193 1 193 0.300017 0.699811 0 0 -0.065758 -0.0312567 -0.0310829 -0.100566 0 0 1.37641 0 0 
194 1 194 0.299986 0.739812 0 0 -0.0251128 0.00623383 -0.00604053 -0.116607 0 0 0.722721 0 0 
195 1 195 0.299957 0.779813 0 0 -0.000455697 0.000528942 3.12172e-05 -0.111879 0 0 -0.113331 0 0 
196 1 196 0.29994 0.819812 0 0 -0.0241702 -0.0304092 -0.0174815 -0.102216 0 0 -0.833737 0 0 
197 1 197 0.299942 0.859812 0 0 -0.026595 0.0121442 -0.00462367 -0.0638725 0 0 -2.24256 0 0 
198 1 198 0.299962 0.899814 0 0 -0.0880103 -0.053368 -0.0453075 -0.0624262 0 0 -2.19843 0 0 
199 1 199 0.299991 0.939818 0 0 -0.129728 0.0144856 -0.0369286 -0.0280976 0 0 -3.48401 0 0 
200 1 200 0.30003 0.979834 0 0 -0.228555 0.00496113 -0.0716705 -0.0336471 0 0 -2.4578 0 0 
201 1 201 0.339992 0.0199912 0 0 -0.0888933 -0.150055 -0.0766045 -0.0298265 0 0 0.703997 0 0 
202 1 202 0.339981 0.0599778 0 0 -0.112191 -0.114926 -0.0728053 -0.00815587 0 0 1.59243 0 0 
203 1 203 0.339977 0.0999689 0 0 -0.149107 -0.11498 -0.0846648 0.00623099 0 0 1.10485 0 0 
204 1 204 0.339978 0.139966 0 0 -0.144986 -0.0641733 -0.0670445 0.0116973 0 0 1.53675 0 0 
205 1 205 0.339984 0.179965 0 0 -0.158746 -0.0906381 -0.079949 0.0272999 0 0 2.30129 0 0 
206 1 206 0.340001 0.219962 0 0 -0.140968 -0.0915288 -0.0745284 0.0515303 0 0 2.93056 0 0 
207 1 207 0.340028 0.259956 0 0 -0.10517 -0.090293 -0.0626484 0.0686243 0 0 3.92511 0 0 
208 1 208 0.340055 0.299946 0 0 -0.0949434 -0.128335 -0.0715697 0.0572375 0 0 4.63444 0 0 
209 1 209 0.340073 0.339933 0 0 -0.0764216 -0.111043 -0.0600828 0.0354174 0 0 5.85211 0 0 
210 1 210 0.340082 0.379921 0 0 -0.0686617 -0.113222 -0.0582925 0.0239457 0 0 6.46211 0 0 
211 1 211 0.340086 0.419907 0 0 -0.0519795 -0.1115 -0.0523915 0.0269286 0 0 6.05042 0 0 
212 1 212 0.340093 0.459891 0 0 -0.0294792 -0.130039 -0.0511251 0.0268826 0 0 5.35432 0 0 
213 1 213 0.3401 0.49987 0 0 0.00991142 -0.133973 -0.0397579 0.0234563 0 0 4.69357 0 0 
214 1 214 0.340102 0.539847 0 0 0.0257052 -0.145232 -0.0383028 0.00639286 0 0 3.68179 0 0 
215 1 215 0.340092 0.579824 0 0 0.0408824 -0.0974792 -0.0181305 -0.0300199 0 0 2.11366 0 0 
216 1 216 0.340069 0.619809 0 0 0.0193515 -0.0718231 -0.0168093 -0.0563893 0 0 0.597644 0 0 
217 1 217 0.340038 0.6598 0 0 0.00591781 -0.0227607 -0.00539061 -0.0756421 0 0 -0.586871 0 0 
218 1 218 0.340007 0.699796 0 0 0.00485019 -0.0150901 -0.00327368 -0.081938 0 0 -1.34707 0 0 
219 1 219 0.339979 0.739793 0 0 -8.94144e-05 -0.0345733 -0.0110994 -0.0928587 0 0 -1.48125 0 0 
220 1 220 0.339955 0.779786 0 0 -0.00374183 -0.0464734 -0.0160845 -0.0953757 0 0 -2.11979 0 0 
221 1 221 0.339939 0.819778 0 0 -0.0108154 -0.070048 -0.0259064 -0.0956857 0 0 -2.06318 0 0 
222 1 222 0.339937 0.859769 0 0 -0.0283503 -0.0441154 -0.0232164 -0.057999 0 0 -2.98155 0 0 
223 1 223 0.33995 0.899766 0 0 -0.101797 -0.0726798 -0.0559206 -0.0654903 0 0 -3.00558 0 0 
224 1 224 0.339967 0.939769 0 0 -0.157201 0.00133754 -0.0499506 -0.0513167 0 0 -3.93156 0 0 
225 1 225 0.339989 0.979785 0 0 -0.271593 -0.00985405 -0.0902302 -0.0510248 0 0 -2.99135 0 0 
226 1 226 0.37999 0.0199922 0 0 -0.0785907 -0.133619 -0.0680254 -0.0430865 0 0 1.0764 0 0 
227 1 227 0.379973 0.0599794 0 0 -0.110395 -0.116122 -0.0726116 -0.0275963 0 0 2.26531 0 0 
228 1 228 0.379963 0.099971 0 0 -0.142516 -0.105905 -0.0796391 -0.00810997 0 0 2.08458 0 0 
229 1 229 0.379961 0.139968 0 0 -0.144887 -0.0728967 -0.0698115 0.000476539 0 0 2.49586 0 0 
230 1 230 0.379967 0.179966 0 0 -0.152729 -0.0914303 -0.0782734 0.0219017 0 0 3.05608 0 0 
231 1 231 0.379986 0.219962 0 0 -0.134242 -0.0910437 -0.0722173 0.0540936 0 0 3.86401 0 0 
232 1 232 0.380018 0.259957 0 0 -0.111741 -0.089511 -0.0645075 0.0729803 0 0 4.45524 0 0 
233 1 233 0.380048 0.299949 0 0 -0.1054 -0.112211 -0.0697534 0.0582192 0 0 4.68361 0 0 
234 1 234 0.380069 0.339938 0 0 -0.0820593 -0.103787 -0.0595651 0.041335 0 0 5.69849 0 0 
235 1 235 0.38008 0.379928 0 0 -0.0582549 -0.0965374 -0.0496046 0.0290491 0 0 6.18653 0 0 
236 1 236 0.380087 0.419914 0 0 -0.0523022 -0.118718 -0.0548085 0.0326867 0 0 5.62904 0 0 
237 1 237 0.380099 0.459897 0 0 -0.0355797 -0.142438 -0.0570553 0.0429087 0 0 5.01723 0 0 
238 1 238 0.380112 0.499876 0 0 0.000496677 -0.127033 -0.0405486 0.0401563 0 0 4.81833 0 0 
239 1 239 0.380118 0.539853 0 0 -0.0162187 -0.170182 -0.0597441 0.0144733 0 0 4.20278 0 0 
240 1 240 0.380107 0.57983 0 0 -0.0244564 -0.128824 -0.0491236 -0.0255311 0 0 3.28182 0 0 
241 1 241 0.38008 0.619814 0 0 -0.0610783 -0.118513 -0.0575636 -0.0547998 0 0 2.57898 0 0 
242 1 242 0.380045 0.659801 0 0 -0.081008 -0.105244 -0.0596987 -0.0652064 0 0 1.45472 0 0 
243 1 243 0.380013 0.699791 0 0 -0.0720013 -0.0885359 -0.0514514 -0.0578442 0 0 0.0935154 0 0 
244 1 244 0.379986 0.739781 0 0 -0.0449325 -0.0979145 -0.0457787 -0.0706048 0 0 -0.439307 0 0 
245 1 245 0.379962 0.779767 0 0 -0.0294027 -0.110003 -0.0446759 -0.0744481 0 0 -1.47201 0 0 
246 1 246 0.379944 0.819751 0 0 -0.0464793 -0.127459 -0.0557485 -0.0761107 0 0 -2.07494 0 0 
247 1 247 0.379937 0.859737 0 0 -0.066463 -0.0972307 -0.0524651 -0.0541638 0 0 -2.62625 0 0 
248 1 248 0.379938 0.899729 0 0 -0.136726 -0.101031 -0.0762178 -0.0551639 0 0 -2.87307 0 0 
249 1 249 0.37994 0.939731 0 0 -0.189455 -0.019583 -0.0670033 -0.0557469 0 0 -4.12763 0 0 
250 1 250 0.379946 0.979746 0 0 -0.282569 -0.0232898 -0.0980638 -0.0541837 0 0 -3.85492 0 0 
251 1 251 0.419989 0.0199932 0 0 -0.0475673 -0.108251 -0.0499396 -0.0455969 0 0 1.14353 0 0 
252 1 252 0.419967 0.0599809 0 0 -0.0548841 -0.0933705 -0.0475103 -0.0393779 0 0 2.21063 0 0 
253 1 253 0.419951 0.0999724 0 0 -0.084214 -0.0781653 -0.0520409 -0.0170793 0 0 1.94607 0 0 
254 1 254 0.419945 0.139968 0 0 -0.107905 -0.0723598 -0.0577776 -0.00462335 0 0 2.41327 0 0 
255 1 255 0.419951 0.179964 0 0 -0.107917 -0.0724231 -0.0578029 0.0251273 0 0 3.18273 0 0 
256 1 256 0.419974 0.21996 0 0 -0.0923581 -0.0683679 -0.0515123 0.0583578 0 0 3.99965 0 0 
257 1 257 0.420007 0.259955 0 0 -0.0906077 -0.0815472 -0.0551768 0.0749661 0 0 4.05664 0 0 
258 1 258 0.42004 0.29995 0 0 -0.070686 -0.0613344 -0.0423069 0.0618091 0 0 4.06549 0 0 
259 1 259 0.420064 0.339944 0 0 -0.0586271 -0.0780494 -0.043798 0.0492617 0 0 4.76701 0 0 
260 1 260 0.420079 0.379934 0 0 -0.0362511 -0.0875191 -0.0396588 0.034334 0 0 4.88553 0 0 
261 1 261 0.42009 0.419921 0 0 -0.00835658 -0.0965902 -0.0336254 0.0378548 0 0 4.50403 0 0 
262 1 262 0.420106 0.459903 0 0 0.0114685 -0.124984 -0.0363748 0.0535604 0 0 3.97891 0 0 
263 1 263 0.420122 0.499883 0 0 0.0422074 -0.0917062 -0.0158554 0.0397792 0 0 3.62278 0 0 
264 1 264 0.420126 0.539862 0 0 0.0112868 -0.148039 -0.0438229 0.0119431 0 0 2.41117 0 0 
265 1 265 0.420111 0.579841 0 0 0.0340341 -0.0877769 -0.0172134 -0.0292693 0 0 1.10595 0 0 
266 1 266 0.420077 0.619824 0 0 0.0142532 -0.0974406 -0.026654 -0.0599291 0 0 0.0106843 0 0 
267 1 267 0.420038 0.659808 0 0 -0.00561478 -0.104191 -0.0351861 -0.0627276 0 0 -1.39315 0 0 
268 1 268 0.420006 0.699793 0 0 -0.0141723 -0.0911448 -0.0337465 -0.0501246 0 0 -2.29334 0 0 
269 1 269 0.419982 0.739776 0 0 -0.0514941 -0.149901 -0.0645543 -0.0495105 0 0 -2.71129 0 0 
270 1 270 0.419962 0.779756 0 0 -0.0365705 -0.137124 -0.0556714 -0.0576819 0 0 -2.91569 0 0 
271 1 271 0.419944 0.819736 0 0 -0.0506475 -0.162264 -0.0682489 -0.0566743 0 0 -2.93394 0 0 
272 1 272 0.419932 0.859716 0 0 -0.0792648 -0.127377 -0.0662398 -0.045251 0 0 -3.20372 0 0 
273 1 273 0.419923 0.899708 0 0 -0.135006 -0.0941644 -0.0734641 -0.0527157 0 0 -3.37586 0 0 
274 1 274 0.419912 0.939708 0 0 -0.18486 -0.0394655 -0.0719083 -0.0554723 0 0 -4.32594 0 0 
275 1 275 0.419905 0.97972 0 0 -0.248112 -0.0233396 -0.0870242 -0.0509624 0 0 -4.14843 0 0 
276 1 276 0.45999 0.0199952 0 0 -0.0273511 -0.0768642 -0.0333962 -0.0391714 0 0 1.39584 0 0 
277 1 277 0.459967 0.059984 0 0 -0.0318695 -0.0865976 -0.0379595 -0.0437334 0 0 2.7768 0 0 
278 1 278 0.459947 0.0999753 0 0 -0.0394584 -0.0562298 -0.0306583 -0.0220561 0 0 2.72139 0 0 
279 1 279 0.459939 0.139969 0 0 -0.054066 -0.0652037 -0.0382192 0.00125695 0 0 3.18502 0 0 
280 1 280 0.459945 0.179964 0 0 -0.0383259 -0.0425033 -0.0258964 0.0365934 0 0 3.65497 0 0 
281 1 281 0.459967 0.21996 0 0 -0.0461048 -0.0493478 -0.0305826 0.0638213 0 0 3.97288 0 0 
282 1 282 0.460001 0.259954 0 0 -0.0660319 -0.0649931 -0.0419867 0.0805197 0 0 3.73811 0 0 
283 1 283 0.460035 0.299952 0 0 -0.0449467 -0.0213079 -0.0212235 0.0730355 0 0 3.42415 0 0 
284 1 284 0.460062 0.339949 0 0 -0.0386009 -0.0580163 -0.0309554 0.0605425 0 0 3.54606 0 0 
285 1 285 0.460081 0.37994 0 0 -0.0142206 -0.082071 -0.0308507 0.0467382 0 0 3.59863 0 0 
286 1 286 0.460098 0.419926 0 0 0.020312 -0.0770849 -0.0181853 0.0506949 0 0 3.6481 0 0 
287 1 287 0.460118 0.459909 0 0 0.00522295 -0.133245 -0.0410282 0.0598727 0 0 3.29762 0 0 
288 1 288 0.460135 0.499889 0 0 0.00749239 -0.0998395 -0.029592 0.0363364 0 0 3.2954 0 0 
289 1 289 0.460139 0.539871 0 0 -0.0354059 -0.141056 -0.0565575 0.00785172 0 0 2.96156 0 0 
290 1 290 0.460123 0.579853 0 0 -0.0521926 -0.119545 -0.0550409 -0.0327348 0 0 2.5315 0 0 
291 1 291 0.460088 0.619836 0 0 -0.0855616 -0.1548 -0.0770535 -0.0639838 0 0 2.20984 0 0 
292 1 292 0.460048 0.659817 0 0 -0.0959385 -0.176561 -0.0873639 -0.0594969 0 0 1.09118 0 0 
293 1 293 0.460015 0.699797 0 0 -0.0775296 -0.148384 -0.0724185 -0.0490186 0 0 -0.0611938 0 0 
294 1 294 0.45999 0.739776 0 0 -0.0884987 -0.198747 -0.0920951 -0.0391577 0 0 -1.31913 0 0 
295 1 295 0.45997 0.779752 0 0 -0.0650071 -0.164379 -0.0735343 -0.0422938 0 0 -2.08548 0 0 
296 1 296 0.459949 0.81973 0 0 -0.0849241 -0.185327 -0.0866438 -0.0467983 0 0 -2.51497 0 0 
297 1 297 0.459929 0.859709 0 0 -0.11094 -0.153987 -0.0849364 -0.0450192 0 0 -2.75391 0 0 
298 1 298 0.459908 0.8997 0 0 -0.149169 -0.0954749 -0.0784279 -0.0468656 0 0 -3.31712 0 0 
299 1 299 0.459887 0.939699 0 0 -0.182114 -0.0615759 -0.0781224 -0.0482108 0 0 -4.39494 0 0 
300 1 300 0.459871 0.979707 0 0 -0.196324 -0.0207193 -0.069571 -0.0405278 0 0 -4.23632 0 0 
301 1 301 0.499993 0.0199974 0 0 0.0123093 -0.0294082 -0.00547593 -0.0271058 0 0 1.26129 0 0 
302 1 302 0.499972 0.0599889 0 0 0.0319797 -0.0509173 -0.00605945 -0.0422663 0 0 2.38452 0 0 
303 1 303 0.499949 0.0999811 0 0 0.0448405 -0.0137144 0.00997946 -0.0231491 0 0 2.60832 0 0 
304 1 304 0.499939 0.139974 0 0 0.0229292 -0.0376556 -0.00471188 0.00952111 0 0 3.24631 0 0 
305 1 305 0.499946 0.179968 0 0 0.0269944 -0.0217272 0.00169431 0.0455999 0 0 3.49768 0 0 
306 1 306 0.499967 0.219962 0 0 0.0184012 -0.0231672 -0.00151863 0.0669531 0 0 3.60187 0 0 
307 1 307 0.499998 0.259958 0 0 0.00102841 -0.0229738 -0.0070223 0.0832923 0 0 3.17775 0 0 
308 1 308 0.500031 0.299957 0 0 0.00238877 0.0106352 0.00418231 0.0781346 0 0 2.47039 0 0 
309 1 309 0.500061 0.339954 0 0 -0.00967578 -0.0407095 -0.0161359 0.0727302 0 0 2.05589 0 0 
310 1 310 0.500086 0.379946 0 0 0.0170084 -0.0659422 -0.0156706 0.0614156 0 0 2.20032 0 0 
311 1 311 0.500109 0.419933 0 0 0.0506086 -0.0636249 -0.00416277 0.0582976 0 0 2.39975 0 0 
312 1 312 0.500129 0.459915 0 0 0.0241146 -0.127628 -0.0331718 0.0553101 0 0 2.02749 0 0 
313 1 313 0.500143 0.499896 0 0 0.0280448 -0.0796939 -0.0165484 0.0293435 0 0 2.02166 0 0 
314 1 314 0.500142 0.539881 0 0 0.00603615 -0.0962538 -0.0289064 0.00274302 0 0 1.29551 0 0 
315 1 315 0.500122 0.579865 0 0 0.0173731 -0.0810721 -0.0204049 -0.0392649 0 0 0.357353 0 0 
316 1 316 0.500086 0.619848 0 0 0.0207435 -0.110156 -0.0286481 -0.0629181 0 0 -0.487618 0 0 
317 1 317 0.500046 0.659827 0 0 0.0238567 -0.138133 -0.0366179 -0.0560673 0 0 -1.65327 0 0 
318 1 318 0.500013 0.699803 0 0 0.0131764 -0.135418 -0.0391715 -0.04987 0 0 -2.21426 0 0 
319 1 319 0.499989 0.739778 0 0 -0.0328257 -0.184737 -0.0697391 -0.0308332 0 0 -3.08385 0 0 
320 1 320 0.49997 0.779753 0 0 -0.0279983 -0.147531 -0.0562601 -0.0349778 0 0 -3.09625 0 0 
321 1 321 0.499949 0.819732 0 0 -0.0574663 -0.170995 -0.0732363 -0.037197 0 0 -3.46337 0 0 
322 1 322 0.499923 0.859712 0 0 -0.0744092 -0.12789 -0.0648459 -0.0474193 0 0 -3.57607 0 0 
323 1 323 0.499893 0.899703 0 0 -0.102428 -0.068106 -0.054658 -0.0489768 0 0 -3.96766 0 0 
324 1 324 0.499865 0.939702 0 0 -0.141898 -0.0638321 -0.0659466 -0.0349646 0 0 -4.6789 0 0 
325 1 325 0.499845 0.979707 0 0 -0.135077 -0.00786282 -0.0458063 -0.0243115 0 0 -4.12568 0 0 
326 1 326 0.539997 0.0199999 0 0 0.0272671 0.00938063 0.0117443 -0.00955266 0 0 1.27664 0 0 
327 1 327 0.539981 0.0599956 0 0 0.0439037 -0.0230191 0.00669827 -0.0335346 0 0 2.60627 0 0 
328 1 328 0.53996 0.09999 0 0 0.0678914 -0.00133067 0.0213287 -0.0174819 0 0 3.2961 0 0 