ITEM: TIMESTEP
0
ITEM: NUMBER OF ATOMS
7127
ITEM: BOX BOUNDS sm sm sm
0 4
0 2
0 0
ITEM: ATOMS id type tag x y z vx 
0 1 0 0 0 0 0 
1 1 1 0 0.04 0 0 
2 1 2 0 0.08 0 0 
3 1 3 0 0.12 0 0 
4 1 4 0 0.16 0 0 
5 1 5 0 0.2 0 0 
6 1 6 0 0.24 0 0 
7 1 7 0 0.28 0 0 
8 1 8 0 0.32 0 0 
9 1 9 0 0.36 0 0 
10 1 10 0 0.4 0 0 
11 1 11 0 0.44 0 0 
12 1 12 0 0.48 0 0 
13 1 13 0 0.52 0 0 
14 1 14 0 0.56 0 0 
15 1 15 0 0.6 0 0 
16 1 16 0 0.64 0 0 
17 1 17 0 0.68 0 0 
18 1 18 0 0.72 0 0 
19 1 19 0 0.76 0 0 
20 1 20 0 0.8 0 0 
21 1 21 0 0.84 0 0 
22 1 22 0 0.88 0 0 
23 1 23 0 0.92 0 0 
24 1 24 0 0.96 0 0 
25 1 25 0 1 0 0 
26 1 26 0.04 0 0 0 
27 1 27 0.0399873 0.0399862 0 -0.0836974 
28 1 28 0.0399838 0.0799779 0 -0.0700201 
29 1 29 0.0399808 0.119972 0 -0.0547688 
30 1 30 0.0399798 0.15997 0 -0.160244 
31 1 31 0.0399764 0.19997 0 -0.305022 
32 1 32 0.0399737 0.239972 0 -0.334675 
33 1 33 0.0399705 0.279973 0 -0.260047 
34 1 34 0.0399682 0.319974 0 -0.166007 
35 1 35 0.0399652 0.359973 0 -0.0491704 
36 1 36 0.0399623 0.399972 0 0.0230082 
37 1 37 0.0399604 0.439969 0 0.0843104 
38 1 38 0.0399581 0.479967 0 0.0499145 
39 1 39 0.0399577 0.519967 0 -0.02945 
40 1 40 0.0399564 0.559969 0 -0.0571498 
41 1 41 0.0399554 0.599973 0 -0.13762 
42 1 42 0.0399551 0.639979 0 -0.196538 
43 1 43 0.0399552 0.679987 0 -0.203743 
44 1 44 0.0399544 0.719997 0 -0.244496 
45 1 45 0.0399545 0.760006 0 -0.326095 
46 1 46 0.0399554 0.800015 0 -0.385312 
47 1 47 0.0399568 0.840024 0 -0.283927 
48 1 48 0.0399554 0.880036 0 -0.405522 
49 1 49 0.0399585 0.920043 0 -0.304855 
50 1 50 0.0399536 0.960055 0 -0.1767 
51 1 51 0.0399093 1.0001 0 -0.374372 
52 1 52 0.08 0 0 0 
53 1 53 0.0799828 0.0399826 0 -0.0941054 
54 1 54 0.079973 0.0799678 0 -0.109822 
55 1 55 0.0799644 0.119959 0 -0.151572 
56 1 56 0.0799581 0.159952 0 -0.311402 
57 1 57 0.0799489 0.199949 0 -0.484216 
58 1 58 0.0799446 0.239948 0 -0.579177 
59 1 59 0.0799384 0.279947 0 -0.600322 
60 1 60 0.0799357 0.319946 0 -0.537857 
61 1 61 0.07993 0.359944 0 -0.308144 
62 1 62 0.0799268 0.399941 0 -0.101759 
63 1 63 0.0799219 0.439939 0 0.0923057 
64 1 64 0.0799185 0.479938 0 0.129415 
65 1 65 0.0799133 0.51994 0 0.0614368 
66 1 66 0.0799111 0.559944 0 0.0189294 
67 1 67 0.0799062 0.599953 0 -0.089304 
68 1 68 0.0799061 0.639964 0 -0.129461 
69 1 69 0.0799013 0.679979 0 -0.1944 
70 1 70 0.0799027 0.719993 0 -0.340577 
71 1 71 0.0799014 0.760011 0 -0.44434 
72 1 72 0.0799033 0.800027 0 -0.588107 
73 1 73 0.0799046 0.840046 0 -0.565863 
74 1 74 0.0799052 0.880064 0 -0.611752 
75 1 75 0.0799093 0.920082 0 -0.469202 
76 1 76 0.0798887 0.960113 0 -0.421258 
77 1 77 0.0798641 1.00013 0 -0.676543 
78 1 78 0.12 0 0 0 
79 1 79 0.119978 0.0399805 0 -0.166219 
80 1 80 0.119963 0.0799651 0 -0.25486 
81 1 81 0.119948 0.119952 0 -0.335662 
82 1 82 0.119936 0.159943 0 -0.472898 
83 1 83 0.119923 0.199935 0 -0.647123 
84 1 84 0.119915 0.23993 0 -0.845865 
85 1 85 0.119907 0.279925 0 -0.964197 
86 1 86 0.119901 0.31992 0 -0.904684 
87 1 87 0.119895 0.359916 0 -0.607987 
88 1 88 0.119889 0.399913 0 -0.314856 
89 1 89 0.119883 0.439912 0 -0.0198344 
90 1 90 0.119876 0.479913 0 0.103028 
91 1 91 0.11987 0.519917 0 0.118601 
92 1 92 0.119862 0.559927 0 0.146575 
93 1 93 0.119856 0.599938 0 0.0935596 
94 1 94 0.119852 0.639954 0 0.138596 
95 1 95 0.119849 0.679972 0 0.0472409 
96 1 96 0.119848 0.719993 0 -0.221388 
97 1 97 0.119848 0.760013 0 -0.382211 
98 1 98 0.119846 0.800038 0 -0.569864 
99 1 99 0.119848 0.84006 0 -0.660302 
100 1 100 0.119851 0.880084 0 -0.676381 
101 1 101 0.119848 0.920113 0 -0.585622 
102 1 102 0.119838 0.960135 0 -0.69989 
103 1 103 0.119824 1.00016 0 -0.961267 
104 1 104 0.16 0 0 0 
105 1 105 0.159973 0.0399794 0 -0.178646 
106 1 106 0.159952 0.0799617 0 -0.336079 
107 1 107 0.159931 0.119947 0 -0.487499 
108 1 108 0.159914 0.159935 0 -0.66236 
109 1 109 0.159896 0.199925 0 -0.899001 
110 1 110 0.159885 0.239916 0 -1.17771 
111 1 111 0.159874 0.279908 0 -1.32319 
112 1 112 0.159867 0.319901 0 -1.24768 
113 1 113 0.159859 0.359897 0 -0.948767 
114 1 114 0.159851 0.399893 0 -0.585602 
115 1 115 0.159842 0.439893 0 -0.210357 
116 1 116 0.159833 0.479896 0 -0.0149448 
117 1 117 0.159822 0.519902 0 0.101683 
118 1 118 0.159812 0.559911 0 0.226426 
119 1 119 0.159802 0.599925 0 0.265855 
120 1 120 0.159797 0.639942 0 0.356147 
121 1 121 0.159789 0.679963 0 0.297483 
122 1 122 0.159787 0.719986 0 0.0495347 
123 1 123 0.159785 0.760013 0 -0.166858 
124 1 124 0.159786 0.800038 0 -0.394416 
125 1 125 0.159786 0.840067 0 -0.503828 
126 1 126 0.159789 0.880094 0 -0.540828 
127 1 127 0.15979 0.920121 0 -0.619543 
128 1 128 0.159787 0.960149 0 -0.934936 
129 1 129 0.159785 1.00017 0 -1.21759 
130 1 130 0.2 0 0 0 
131 1 131 0.199968 0.0399779 0 -0.217109 
132 1 132 0.19994 0.0799586 0 -0.424801 
133 1 133 0.199914 0.119942 0 -0.635477 
134 1 134 0.199892 0.159928 0 -0.859476 
135 1 135 0.199869 0.199915 0 -1.12452 
136 1 136 0.199854 0.239904 0 -1.40908 
137 1 137 0.199841 0.279895 0 -1.6011 
138 1 138 0.199832 0.319888 0 -1.59475 
139 1 139 0.199821 0.359882 0 -1.35026 
140 1 140 0.199812 0.39988 0 -0.97513 
141 1 141 0.1998 0.43988 0 -0.57306 
142 1 142 0.199788 0.479883 0 -0.312621 
143 1 143 0.199774 0.51989 0 -0.0708372 
144 1 144 0.199761 0.5599 0 0.153634 
145 1 145 0.199748 0.599914 0 0.33703 
146 1 146 0.19974 0.639933 0 0.512519 
147 1 147 0.199733 0.679954 0 0.501076 
148 1 148 0.19973 0.719979 0 0.335595 
149 1 149 0.199724 0.760006 0 0.134735 
150 1 150 0.199722 0.800035 0 -0.116823 
151 1 151 0.199724 0.840064 0 -0.300595 
152 1 152 0.199729 0.880093 0 -0.400012 
153 1 153 0.199731 0.92012 0 -0.639335 
154 1 154 0.199737 0.960144 0 -1.14728 
155 1 155 0.199747 1.00017 0 -1.46013 
156 1 156 0.24 0 0 0 
157 1 157 0.239962 0.0399756 0 -0.342309 
158 1 158 0.239928 0.079955 0 -0.595657 
159 1 159 0.239897 0.119937 0 -0.813072 
160 1 160 0.239869 0.159922 0 -1.00954 
161 1 161 0.239843 0.199907 0 -1.24561 
162 1 162 0.239825 0.239895 0 -1.53867 
163 1 163 0.239808 0.279884 0 -1.79843 
164 1 164 0.239796 0.319877 0 -1.84912 
165 1 165 0.239783 0.359871 0 -1.67196 
166 1 166 0.239771 0.39987 0 -1.38223 
167 1 167 0.239756 0.439871 0 -1.02321 
168 1 168 0.239741 0.479875 0 -0.729814 
169 1 169 0.239724 0.519882 0 -0.391653 
170 1 170 0.239708 0.559891 0 -0.0631068 
171 1 171 0.239694 0.599904 0 0.2314 
172 1 172 0.239682 0.639921 0 0.476577 
173 1 173 0.23967 0.679942 0 0.534118 
174 1 174 0.239663 0.719966 0 0.424935 
175 1 175 0.239658 0.759994 0 0.269266 
176 1 176 0.239657 0.800021 0 0.112394 
177 1 177 0.239657 0.840051 0 -0.146297 
178 1 178 0.239666 0.880079 0 -0.368613 
179 1 179 0.239673 0.920105 0 -0.663385 
180 1 180 0.239686 0.96013 0 -1.26278 
181 1 181 0.239701 1.00015 0 -1.60812 
182 1 182 0.28 0 0 0 
183 1 183 0.279955 0.039973 0 -0.426464 
184 1 184 0.279914 0.079951 0 -0.701154 
185 1 185 0.279879 0.119932 0 -0.926969 
186 1 186 0.279847 0.159915 0 -1.10829 
187 1 187 0.279818 0.199899 0 -1.3457 
188 1 188 0.279796 0.239886 0 -1.61965 
189 1 189 0.279775 0.279875 0 -1.86079 
190 1 190 0.279761 0.319867 0 -1.95961 
191 1 191 0.279744 0.359862 0 -1.91701 
192 1 192 0.27973 0.399861 0 -1.76248 
193 1 193 0.279711 0.439863 0 -1.4393 
194 1 194 0.279693 0.479867 0 -1.1028 
195 1 195 0.279674 0.519874 0 -0.716638 
196 1 196 0.279656 0.559883 0 -0.310941 
197 1 197 0.279637 0.599896 0 0.044924 
198 1 198 0.279624 0.639912 0 0.281823 
199 1 199 0.279614 0.679931 0 0.42647 
200 1 200 0.279605 0.719954 0 0.392997 
201 1 201 0.279597 0.759978 0 0.220318 
202 1 202 0.279595 0.800005 0 0.145235 
203 1 203 0.279595 0.840031 0 -0.10399 
204 1 204 0.279606 0.880058 0 -0.410741 
205 1 205 0.279616 0.920083 0 -0.71149 
206 1 206 0.279633 0.960109 0 -1.3268 
207 1 207 0.279655 1.00013 0 -1.69247 
208 1 208 0.32 0 0 0 
209 1 209 0.319946 0.0399707 0 -0.548746 
210 1 210 0.3199 0.0799468 0 -0.857945 
211 1 211 0.319861 0.119927 0 -1.06603 
212 1 212 0.319825 0.159908 0 -1.20331 
213 1 213 0.319793 0.199892 0 -1.40045 
214 1 214 0.319768 0.239877 0 -1.59609 
215 1 215 0.319744 0.279866 0 -1.80145 
216 1 216 0.319725 0.319858 0 -1.96984 
217 1 217 0.319704 0.359854 0 -2.03145 
218 1 218 0.319685 0.399854 0 -2.0054 
219 1 219 0.319664 0.439856 0 -1.77499 
220 1 220 0.319644 0.479861 0 -1.41647 
221 1 221 0.319621 0.519866 0 -0.975608 
222 1 222 0.319602 0.559875 0 -0.495985 
223 1 223 0.319584 0.599884 0 -0.0940936 
224 1 224 0.319567 0.639898 0 0.0930547 
225 1 225 0.31955 0.679914 0 0.225664 
226 1 226 0.319538 0.719934 0 0.229117 
227 1 227 0.319532 0.759957 0 0.0768833 
228 1 228 0.319532 0.799981 0 0.0333069 
229 1 229 0.319531 0.840006 0 -0.21602 
230 1 230 0.319543 0.880032 0 -0.543249 
231 1 231 0.319558 0.920058 0 -0.800391 
232 1 232 0.319578 0.960084 0 -1.33425 
233 1 233 0.319601 1.00011 0 -1.65814 
234 1 234 0.36 0 0 0 
235 1 235 0.359939 0.0399682 0 -0.66602 
236 1 236 0.359886 0.0799417 0 -1.042 
237 1 237 0.359842 0.11992 0 -1.25356 
238 1 238 0.359803 0.1599 0 -1.34855 
239 1 239 0.359769 0.199883 0 -1.46103 
240 1 240 0.35974 0.239869 0 -1.56551 
241 1 241 0.359712 0.279857 0 -1.73071 
242 1 242 0.359689 0.31985 0 -1.9233 
243 1 243 0.359663 0.359846 0 -2.03003 
244 1 244 0.359641 0.399845 0 -2.03926 
245 1 245 0.359616 0.439847 0 -1.87682 
246 1 246 0.359594 0.479851 0 -1.52397 
247 1 247 0.35957 0.519857 0 -1.05391 
248 1 248 0.359549 0.559864 0 -0.572428 
249 1 249 0.359526 0.599873 0 -0.178696 
250 1 250 0.35951 0.639885 0 -0.0340809 
251 1 251 0.359498 0.6799 0 0.053957 
252 1 252 0.359486 0.719916 0 0.0261934 
253 1 253 0.359475 0.759936 0 -0.119198 
254 1 254 0.359473 0.799958 0 -0.149791 
255 1 255 0.359474 0.839981 0 -0.387877 
256 1 256 0.359485 0.880006 0 -0.723341 
257 1 257 0.359498 0.920032 0 -0.9602 
258 1 258 0.35952 0.960059 0 -1.30355 
259 1 259 0.359547 1.00009 0 -1.47892 
260 1 260 0.4 0 0 0 
261 1 261 0.399931 0.0399662 0 -0.744833 
262 1 262 0.399873 0.0799373 0 -1.20075 
263 1 263 0.399825 0.119913 0 -1.44199 
264 1 264 0.399782 0.159892 0 -1.55425 
265 1 265 0.399745 0.199875 0 -1.63883 
266 1 266 0.399711 0.23986 0 -1.6612 
267 1 267 0.399679 0.279849 0 -1.70872 
268 1 268 0.399651 0.319842 0 -1.82339 
269 1 269 0.399621 0.359838 0 -1.98427 
270 1 270 0.399594 0.399837 0 -2.04188 
271 1 271 0.399566 0.439839 0 -1.91271 
272 1 272 0.399543 0.479842 0 -1.55492 
273 1 273 0.399516 0.519846 0 -1.03584 
274 1 274 0.399496 0.559852 0 -0.529385 
275 1 275 0.399474 0.599857 0 -0.116289 
276 1 276 0.399455 0.639866 0 0.000472484 
277 1 277 0.399435 0.679878 0 -0.00465388 
278 1 278 0.399421 0.719893 0 -0.0962071 
279 1 279 0.399414 0.75991 0 -0.276432 
280 1 280 0.399413 0.799931 0 -0.399713 
281 1 281 0.399413 0.839952 0 -0.641105 
282 1 282 0.399423 0.879977 0 -0.959083 
283 1 283 0.399438 0.920004 0 -1.18381 
284 1 284 0.399461 0.960031 0 -1.26402 
285 1 285 0.399487 1.00006 0 -1.22671 
286 1 286 0.44 0 0 0 
287 1 287 0.439926 0.0399637 0 -0.78911 
288 1 288 0.439861 0.0799324 0 -1.34326 
289 1 289 0.439806 0.119906 0 -1.66907 
290 1 290 0.43976 0.159884 0 -1.83261 
291 1 291 0.43972 0.199865 0 -1.87056 
292 1 292 0.439682 0.239851 0 -1.82235 
293 1 293 0.439646 0.279839 0 -1.83729 
294 1 294 0.439612 0.319832 0 -1.89399 
295 1 295 0.439577 0.359827 0 -2.01378 
296 1 296 0.439548 0.399826 0 -2.04683 
297 1 297 0.439517 0.439826 0 -1.89713 
298 1 298 0.439492 0.479828 0 -1.5065 
299 1 299 0.439466 0.519831 0 -0.95565 
300 1 300 0.439444 0.559835 0 -0.423161 
301 1 301 0.439418 0.599841 0 -0.025039 
302 1 302 0.439401 0.639849 0 0.0623237 
303 1 303 0.439386 0.679859 0 -0.0120068 
304 1 304 0.439375 0.719872 0 -0.169498 
305 1 305 0.439361 0.759887 0 -0.371428 
306 1 306 0.439356 0.799906 0 -0.598635 
307 1 307 0.439358 0.839926 0 -0.825717 
308 1 308 0.439365 0.87995 0 -1.10421 
309 1 309 0.439377 0.919975 0 -1.31283 
310 1 310 0.4394 0.960004 0 -1.08496 
311 1 311 0.439426 1.00003 0 -0.804315 
312 1 312 0.48 0 0 0 
313 1 313 0.479919 0.0399618 0 -0.760451 
314 1 314 0.47985 0.079928 0 -1.40463 
315 1 315 0.47979 0.119899 0 -1.86238 
316 1 316 0.479738 0.159876 0 -2.1257 
317 1 317 0.479693 0.199856 0 -2.18642 
318 1 318 0.479651 0.239841 0 -2.13589 
319 1 319 0.47961 0.279829 0 -2.11599 
320 1 320 0.479572 0.31982 0 -2.10923 
321 1 321 0.479534 0.359815 0 -2.16015 
322 1 322 0.4795 0.399813 0 -2.1032 
323 1 323 0.479468 0.439812 0 -1.88993 
324 1 324 0.479441 0.479813 0 -1.45244 
325 1 325 0.479413 0.519815 0 -0.89096 
326 1 326 0.479392 0.559818 0 -0.333525 
327 1 327 0.479369 0.599821 0 0.0871176 
328 1 328 0.479349 0.639827 0 0.18687 
329 1 329 0.479324 0.679835 0 0.0525527 
330 1 330 0.47931 0.719847 0 -0.198581 
331 1 331 0.479301 0.75986 0 -0.430529 
332 1 332 0.479297 0.799878 0 -0.744254 
333 1 333 0.479296 0.839897 0 -0.97075 
334 1 334 0.479301 0.87992 0 -1.21502 
335 1 335 0.479314 0.919946 0 -1.39181 
336 1 336 0.479336 0.959974 0 -0.942946 
337 1 337 0.479358 1 0 -0.504311 
338 1 338 0.52 0 0 0 
339 1 339 0.519916 0.0399598 0 -0.661023 
340 1 340 0.51984 0.0799238 0 -1.36317 
341 1 341 0.519774 0.119893 0 -1.93677 
342 1 342 0.519718 0.159867 0 -2.28925 
343 1 343 0.519668 0.199846 0 -2.42412 
344 1 344 0.51962 0.239829 0 -2.45526 
345 1 345 0.519575 0.279817 0 -2.44369 
346 1 346 0.519532 0.319807 0 -2.39976 
347 1 347 0.519491 0.359799 0 -2.41095 
348 1 348 0.519455 0.399795 0 -2.2682 
349 1 349 0.519419 0.439792 0 -1.99283 
350 1 350 0.519392 0.479792 0 -1.53243 
351 1 351 0.519364 0.519793 0 -0.950586 
352 1 352 0.519341 0.559796 0 -0.358904 
353 1 353 0.519314 0.599801 0 0.0929248 
354 1 354 0.519296 0.639808 0 0.278303 
355 1 355 0.519279 0.679815 0 0.174281 
356 1 356 0.519266 0.719826 0 -0.117121 
357 1 357 0.519249 0.759838 0 -0.370383 
358 1 358 0.51924 0.799853 0 -0.729358 
359 1 359 0.519241 0.839872 0 -0.90256 
360 1 360 0.519243 0.879893 0 -1.03511 
361 1 361 0.519251 0.919918 0 -1.10143 
362 1 362 0.519271 0.959947 0 -0.564211 
363 1 363 0.519293 0.999978 0 -0.108782 
364 1 364 0.56 0 0 0 
365 1 365 0.559911 0.0399583 0 -0.505136 
366 1 366 0.559832 0.0799201 0 -1.22842 
367 1 367 0.55976 0.119886 0 -1.89526 
368 1 368 0.559697 0.159859 0 -2.31914 
369 1 369 0.559642 0.199836 0 -2.51809 
370 1 370 0.55959 0.239817 0 -2.66093 
371 1 371 0.559541 0.279802 0 -2.7712 
372 1 372 0.559494 0.31979 0 -2.75428 
373 1 373 0.559449 0.359781 0 -2.6877 
374 1 374 0.559409 0.399775 0 -2.45221 
375 1 375 0.559372 0.439771 0 -2.11604 
376 1 376 0.559343 0.47977 0 -1.62822 
377 1 377 0.559313 0.519771 0 -1.03384 
378 1 378 0.559291 0.559773 0 -0.394256 
379 1 379 0.559267 0.599777 0 0.081038 
380 1 380 0.559245 0.639781 0 0.328623 
381 1 381 0.559216 0.679788 0 0.299502 
382 1 382 0.559199 0.719798 0 0.04179 
383 1 383 0.559187 0.75981 0 -0.179262 
384 1 384 0.559179 0.799826 0 -0.503634 
385 1 385 0.559175 0.839844 0 -0.619109 
386 1 386 0.559175 0.879867 0 -0.688612 
387 1 387 0.559185 0.919892 0 -0.701068 
388 1 388 0.559201 0.959921 0 -0.296937 
389 1 389 0.559219 0.999954 0 0.00812526 
390 1 390 0.6 0 0 0 
391 1 391 0.59991 0.0399564 0 -0.399291 
392 1 392 0.599824 0.0799164 0 -1.06083 
393 1 393 0.599746 0.11988 0 -1.69879 
394 1 394 0.599679 0.15985 0 -2.15973 
395 1 395 0.599617 0.199824 0 -2.45527 
396 1 396 0.599561 0.239803 0 -2.70575 
397 1 397 0.599508 0.279786 0 -2.91657 
398 1 398 0.599458 0.319772 0 -2.96172 
399 1 399 0.599411 0.35976 0 -2.84959 
400 1 400 0.599369 0.399752 0 -2.54538 
401 1 401 0.599329 0.439746 0 -2.18828 
402 1 402 0.599297 0.479744 0 -1.71318 
403 1 403 0.599267 0.519744 0 -1.18793 
404 1 404 0.599242 0.559746 0 -0.565102 
405 1 405 0.599212 0.599751 0 -0.0327708 
406 1 406 0.599192 0.639758 0 0.331466 
407 1 407 0.599171 0.679765 0 0.436336 
408 1 408 0.599154 0.719775 0 0.270493 
409 1 409 0.599133 0.759787 0 0.107522 
410 1 410 0.59912 0.799803 0 -0.103269 
411 1 411 0.599116 0.839822 0 -0.115801 
412 1 412 0.599114 0.879844 0 -0.121144 
413 1 413 0.599119 0.91987 0 -0.049234 
414 1 414 0.599133 0.9599 0 0.15899 
415 1 415 0.599152 0.999933 0 0.242539 
416 1 416 0.64 0 0 0 
417 1 417 0.639907 0.0399556 0 -0.289237 
418 1 418 0.639819 0.0799137 0 -0.848024 
419 1 419 0.639736 0.119875 0 -1.40795 
420 1 420 0.639662 0.159842 0 -1.83362 
421 1 421 0.639595 0.199814 0 -2.18127 
422 1 422 0.639535 0.23979 0 -2.54407 
423 1 423 0.639478 0.279771 0 -2.85552 
424 1 424 0.639424 0.319754 0 -2.98984 
425 1 425 0.639375 0.359741 0 -2.91495 
426 1 426 0.639329 0.39973 0 -2.61441 
427 1 427 0.639287 0.439723 0 -2.26011 
428 1 428 0.639252 0.479719 0 -1.80781 
429 1 429 0.639217 0.519718 0 -1.36507 
430 1 430 0.639192 0.55972 0 -0.772183 
431 1 431 0.639165 0.599723 0 -0.170866 
432 1 432 0.639139 0.639728 0 0.307529 
433 1 433 0.639106 0.679734 0 0.550378 
434 1 434 0.639084 0.719744 0 0.528219 
435 1 435 0.639067 0.759758 0 0.441592 
436 1 436 0.639055 0.799775 0 0.345118 
437 1 437 0.639044 0.839797 0 0.415106 
438 1 438 0.639042 0.879822 0 0.447255 
439 1 439 0.639048 0.919849 0 0.562954 
440 1 440 0.639058 0.95988 0 0.47075 
441 1 441 0.639074 0.999914 0 0.271821 
442 1 442 0.68 0 0 0 
443 1 443 0.679906 0.039955 0 -0.249861 
444 1 444 0.679814 0.0799117 0 -0.67986 
445 1 445 0.679727 0.119872 0 -1.10507 
446 1 446 0.679649 0.159836 0 -1.46263 
447 1 447 0.679576 0.199805 0 -1.84044 
448 1 448 0.679511 0.239779 0 -2.28993 
449 1 449 0.679451 0.279756 0 -2.68196 
450 1 450 0.679395 0.319737 0 -2.86011 
451 1 451 0.679342 0.359721 0 -2.79363 
452 1 452 0.679294 0.399708 0 -2.51472 
453 1 453 0.679249 0.439698 0 -2.18647 
454 1 454 0.67921 0.479693 0 -1.79321 
455 1 455 0.679174 0.519691 0 -1.44776 
456 1 456 0.679142 0.559693 0 -0.923926 
457 1 457 0.679108 0.599697 0 -0.348214 
458 1 458 0.679083 0.639703 0 0.161688 
459 1 459 0.67906 0.679711 0 0.525158 
460 1 460 0.679037 0.719721 0 0.671371 
461 1 461 0.679009 0.759735 0 0.670037 
462 1 462 0.678992 0.799753 0 0.699628 
463 1 463 0.678982 0.839776 0 0.867568 
464 1 464 0.678979 0.879802 0 0.956319 
465 1 465 0.67898 0.919831 0 1.13291 
466 1 466 0.678988 0.959863 0 0.816071 
467 1 467 0.679007 0.999897 0 0.407592 
468 1 468 0.72 0 0 0 
469 1 469 0.719905 0.0399553 0 -0.280763 
470 1 470 0.719812 0.0799117 0 -0.583791 
471 1 471 0.719722 0.11987 0 -0.84384 
472 1 472 0.719637 0.159833 0 -1.11724 
473 1 473 0.71956 0.199799 0 -1.48488 
474 1 474 0.719491 0.23977 0 -1.95092 
475 1 475 0.719426 0.279745 0 -2.3914 
476 1 476 0.719367 0.319724 0 -2.62346 
477 1 477 0.719312 0.359706 0 -2.58473 
478 1 478 0.719259 0.399691 0 -2.351 
479 1 479 0.71921 0.43968 0 -2.11551 
480 1 480 0.719166 0.479673 0 -1.83853 
481 1 481 0.719123 0.519669 0 -1.58097 
482 1 482 0.71909 0.55967 0 -1.13615 
483 1 483 0.719059 0.599671 0 -0.58276 
484 1 484 0.719027 0.639674 0 -0.0228904 
485 1 485 0.718989 0.679681 0 0.402562 
486 1 486 0.71896 0.719691 0 0.64183 
487 1 487 0.718937 0.759706 0 0.713499 
488 1 488 0.718922 0.799726 0 0.85163 
489 1 489 0.718905 0.839751 0 1.08425 
490 1 490 0.718902 0.87978 0 1.2136 
491 1 491 0.718905 0.919811 0 1.44362 
492 1 492 0.71891 0.959845 0 1.03739 
493 1 493 0.718927 0.99988 0 0.549545 
494 1 494 0.76 0 0 0 
495 1 495 0.759906 0.039956 0 -0.321682 
496 1 496 0.75981 0.0799123 0 -0.519317 
497 1 497 0.759717 0.11987 0 -0.666246 
498 1 498 0.759629 0.159831 0 -0.892693 
499 1 499 0.759546 0.199795 0 -1.24682 
500 1 500 0.759473 0.239764 0 -1.68496 
501 1 501 0.759404 0.279736 0 -2.08914 
502 1 502 0.759341 0.319713 0 -2.33757 
503 1 503 0.759282 0.359692 0 -2.37758 
504 1 504 0.759227 0.399675 0 -2.2055 
505 1 505 0.759173 0.439662 0 -2.00339 
506 1 506 0.759124 0.479653 0 -1.77994 
507 1 507 0.759079 0.519648 0 -1.58646 
508 1 508 0.759038 0.559647 0 -1.26498 
509 1 509 0.758998 0.599649 0 -0.825249 
510 1 510 0.758966 0.639655 0 -0.304782 
511 1 511 0.758939 0.679662 0 0.12703 
512 1 512 0.758911 0.719672 0 0.431103 
513 1 513 0.758877 0.759687 0 0.571524 
514 1 514 0.758855 0.799707 0 0.804027 
515 1 515 0.75884 0.839731 0 1.10328 
516 1 516 0.758835 0.87976 0 1.27314 
517 1 517 0.758832 0.919792 0 1.51362 
518 1 518 0.758839 0.959827 0 1.12994 
519 1 519 0.758857 0.999862 0 0.693074 
520 1 520 0.8 0 0 0 
521 1 521 0.799905 0.0399576 0 -0.448801 
522 1 522 0.799809 0.079914 0 -0.596359 
523 1 523 0.799714 0.119871 0 -0.625108 
524 1 524 0.799621 0.159832 0 -0.776623 
525 1 525 0.799535 0.199794 0 -1.10529 
526 1 526 0.799456 0.239761 0 -1.51472 
527 1 527 0.799382 0.279731 0 -1.87741 
528 1 528 0.799316 0.319706 0 -2.08683 
529 1 529 0.799252 0.359684 0 -2.15012 
530 1 530 0.799192 0.399667 0 -2.05999 
531 1 531 0.799133 0.439652 0 -1.94386 
532 1 532 0.799078 0.479641 0 -1.80221 
533 1 533 0.799025 0.519634 0 -1.64789 
534 1 534 0.798982 0.559631 0 -1.39001 
535 1 535 0.798946 0.59963 0 -1.04161 
536 1 536 0.798907 0.639632 0 -0.612292 
537 1 537 0.798863 0.679638 0 -0.242778 
538 1 538 0.798829 0.719648 0 0.0927182 
539 1 539 0.798801 0.759663 0 0.288532 
540 1 540 0.798781 0.799683 0 0.543903 
541 1 541 0.798759 0.839709 0 0.877577 
542 1 542 0.798754 0.879739 0 1.15752 
543 1 543 0.798754 0.919771 0 1.46365 
544 1 544 0.798759 0.959806 0 1.22334 
545 1 545 0.798773 0.999843 0 0.939326 
546 1 546 0.84 0 0 0 
547 1 547 0.839908 0.0399577 0 -0.547621 
548 1 548 0.839809 0.0799151 0 -0.674425 
549 1 549 0.83971 0.119873 0 -0.633969 
550 1 550 0.839615 0.159832 0 -0.755613 
551 1 551 0.839524 0.199793 0 -1.05669 
552 1 552 0.83944 0.239759 0 -1.39679 
553 1 553 0.839362 0.279727 0 -1.71647 
554 1 554 0.839289 0.3197 0 -1.92447 
555 1 555 0.839221 0.359677 0 -2.04282 
556 1 556 0.839157 0.399657 0 -2.01033 
557 1 557 0.839093 0.43964 0 -1.91647 
558 1 558 0.839033 0.479628 0 -1.79609 
559 1 559 0.838979 0.519619 0 -1.63739 
560 1 560 0.838928 0.559615 0 -1.4448 
561 1 561 0.838881 0.599615 0 -1.22299 
562 1 562 0.838843 0.63962 0 -0.906862 
563 1 563 0.838812 0.679627 0 -0.611617 
564 1 564 0.838779 0.719637 0 -0.28404 
565 1 565 0.838739 0.759652 0 -0.0232957 
566 1 566 0.838712 0.79967 0 0.29368 
567 1 567 0.838693 0.839693 0 0.633968 
568 1 568 0.838685 0.87972 0 0.90299 
569 1 569 0.838677 0.919752 0 1.14941 
570 1 570 0.838683 0.959787 0 1.07574 
571 1 571 0.838698 0.999824 0 1.00055 
572 1 572 0.88 0 0 0 
573 1 573 0.879906 0.0399581 0 -0.656653 
574 1 574 0.879808 0.0799155 0 -0.767742 
575 1 575 0.879708 0.119873 0 -0.705968 
576 1 576 0.879608 0.159832 0 -0.852209 
577 1 577 0.879514 0.199793 0 -1.12494 
578 1 578 0.879424 0.239757 0 -1.35706 
579 1 579 0.87934 0.279725 0 -1.58278 
580 1 580 0.879263 0.319697 0 -1.76231 
581 1 581 0.879189 0.359672 0 -1.95164 
582 1 582 0.879118 0.399653 0 -2.00448 
583 1 583 0.879049 0.439635 0 -1.93717 
584 1 584 0.878984 0.479622 0 -1.81166 
585 1 585 0.878923 0.519612 0 -1.62726 
586 1 586 0.878871 0.559606 0 -1.47267 
587 1 587 0.878829 0.599603 0 -1.34807 
588 1 588 0.878783 0.639604 0 -1.13779 
589 1 589 0.878734 0.67961 0 -0.920291 
590 1 590 0.878693 0.719621 0 -0.63672 
591 1 591 0.878662 0.759635 0 -0.34264 
592 1 592 0.878635 0.799653 0 -0.00791621 
593 1 593 0.87861 0.839676 0 0.308224 
594 1 594 0.8786 0.879702 0 0.610007 
595 1 595 0.878596 0.919732 0 0.872339 
596 1 596 0.878599 0.959766 0 1.01533 
597 1 597 0.878609 0.999804 0 1.15549 
598 1 598 0.92 0 0 0 
599 1 599 0.919906 0.0399568 0 -0.747927 
600 1 600 0.919805 0.0799144 0 -0.889405 
601 1 601 0.919703 0.119872 0 -0.787308 
602 1 602 0.919603 0.159831 0 -0.871382 
603 1 603 0.919504 0.199791 0 -1.10661 
604 1 604 0.919408 0.239754 0 -1.29659 
605 1 605 0.919319 0.279721 0 -1.49833 
606 1 606 0.919235 0.319692 0 -1.68605 
607 1 607 0.919155 0.359666 0 -1.93153 
608 1 608 0.919081 0.399645 0 -2.06141 
609 1 609 0.919008 0.439627 0 -2.01968 
610 1 610 0.91894 0.479613 0 -1.85987 
611 1 611 0.918878 0.519602 0 -1.61284 
612 1 612 0.918819 0.559596 0 -1.44078 
613 1 613 0.918764 0.599596 0 -1.40016 
614 1 614 0.918719 0.639601 0 -1.33017 
615 1 615 0.918684 0.679608 0 -1.16039 
616 1 616 0.918644 0.719619 0 -0.86601 
617 1 617 0.9186 0.759631 0 -0.502424 
618 1 618 0.918567 0.799648 0 -0.130996 
619 1 619 0.918544 0.839666 0 0.138226 
620 1 620 0.918529 0.879689 0 0.408896 
621 1 621 0.918515 0.919717 0 0.596965 
622 1 622 0.918518 0.959751 0 0.801884 
623 1 623 0.918526 0.999789 0 1.04892 
624 1 624 0.96 0 0 0 
625 1 625 0.959901 0.0399554 0 -0.743181 
626 1 626 0.959801 0.0799132 0 -0.930027 
627 1 627 0.959699 0.119871 0 -0.881766 
628 1 628 0.959594 0.15983 0 -0.949751 
629 1 629 0.959494 0.199791 0 -1.10193 
630 1 630 0.959395 0.239753 0 -1.1832 
631 1 631 0.959299 0.279719 0 -1.33855 
632 1 632 0.959209 0.319689 0 -1.53693 
633 1 633 0.959124 0.359663 0 -1.81764 
634 1 634 0.959042 0.399642 0 -2.02095 
635 1 635 0.958965 0.439624 0 -2.02894 
636 1 636 0.958892 0.47961 0 -1.85858 
637 1 637 0.958824 0.5196 0 -1.60646 
638 1 638 0.958764 0.559593 0 -1.42833 
639 1 639 0.958715 0.59959 0 -1.37661 
640 1 640 0.958661 0.639591 0 -1.36332 
641 1 641 0.958605 0.679598 0 -1.21431 
642 1 642 0.958557 0.719609 0 -0.910274 
643 1 643 0.958522 0.759621 0 -0.516712 
644 1 644 0.958489 0.799637 0 -0.169558 
645 1 645 0.958458 0.839655 0 -0.00476411 
646 1 646 0.958441 0.879678 0 0.195505 
647 1 647 0.958432 0.919705 0 0.346524 
648 1 648 0.958429 0.959739 0 0.617727 
649 1 649 0.958429 0.999778 0 0.927272 
650 1 650 1 0 0 0 
651 1 651 0.999899 0.0399534 0 -0.711855 
652 1 652 0.999794 0.0799118 0 -0.962506 
653 1 653 0.999691 0.119871 0 -0.994871 
654 1 654 0.999589 0.159831 0 -1.00293 
655 1 655 0.999486 0.199791 0 -1.01443 
656 1 656 0.999382 0.239753 0 -0.968599 
657 1 657 0.999282 0.279718 0 -1.04746 
658 1 658 0.999185 0.319686 0 -1.26264 
659 1 659 0.999092 0.359659 0 -1.62377 
660 1 660 0.999007 0.399637 0 -1.93946 
661 1 661 0.998927 0.439618 0 -2.03718 
662 1 662 0.998851 0.479604 0 -1.86086 
663 1 663 0.998783 0.519594 0 -1.59936 
664 1 664 0.998717 0.559588 0 -1.46048 
665 1 665 0.998653 0.599588 0 -1.44258 
666 1 666 0.998599 0.639594 0 -1.4766 
667 1 667 0.998558 0.679602 0 -1.31626 
668 1 668 0.998511 0.719612 0 -0.982356 
669 1 669 0.998462 0.759624 0 -0.531049 
670 1 670 0.998422 0.799638 0 -0.104871 
671 1 671 0.998394 0.839654 0 0.0722462 
672 1 672 0.998371 0.879675 0 0.182518 
673 1 673 0.998349 0.919701 0 0.208301 
674 1 674 0.998342 0.959735 0 0.406554 
675 1 675 0.998339 0.999775 0 0.673303 
676 1 676 1.04 0 0 0 
677 1 677 1.03989 0.0399534 0 -0.618064 
678 1 678 1.03979 0.079912 0 -0.923213 
679 1 679 1.03969 0.119872 0 -1.01461 
680 1 680 1.03958 0.159833 0 -0.959164 
681 1 681 1.03948 0.199793 0 -0.890254 
682 1 682 1.03937 0.239756 0 -0.772588 
683 1 683 1.03927 0.279719 0 -0.782292 
684 1 684 1.03916 0.319687 0 -0.977018 
685 1 685 1.03907 0.359659 0 -1.32345 
686 1 686 1.03897 0.399636 0 -1.67919 
687 1 687 1.03889 0.439617 0 -1.9012 
688 1 688 1.03881 0.479603 0 -1.83648 
689 1 689 1.03873 0.519593 0 -1.6733 
690 1 690 1.03867 0.559588 0 -1.58829 
691 1 691 1.03861 0.599586 0 -1.54531 
692 1 692 1.03854 0.639588 0 -1.57536 
693 1 693 1.03848 0.679595 0 -1.36182 
694 1 694 1.03842 0.719607 0 -0.911544 
695 1 695 1.03838 0.759619 0 -0.404629 
696 1 696 1.03834 0.799635 0 -0.035819 
697 1 697 1.03831 0.839652 0 0.0721879 
698 1 698 1.03828 0.879675 0 0.111813 
699 1 699 1.03826 0.919703 0 0.0676359 
700 1 700 1.03825 0.959737 0 0.175737 
701 1 701 1.03824 0.999779 0 0.350772 
702 1 702 1.08 0 0 0 
703 1 703 1.07989 0.0399533 0 -0.430647 
704 1 704 1.07978 0.0799131 0 -0.842162 
705 1 705 1.07968 0.119874 0 -1.12953 
706 1 706 1.07957 0.159836 0 -1.09056 
707 1 707 1.07947 0.199797 0 -0.889616 
708 1 708 1.07936 0.239758 0 -0.595078 
709 1 709 1.07926 0.279721 0 -0.447362 
710 1 710 1.07915 0.319687 0 -0.566077 
711 1 711 1.07904 0.359656 0 -0.908399 
712 1 712 1.07895 0.399631 0 -1.34426 
713 1 713 1.07886 0.439612 0 -1.69727 
714 1 714 1.07877 0.479598 0 -1.75416 
715 1 715 1.0787 0.519589 0 -1.72488 
716 1 716 1.07862 0.559585 0 -1.76752 
717 1 717 1.07855 0.599587 0 -1.77732 
718 1 718 1.07848 0.639595 0 -1.81713 
719 1 719 1.07843 0.679605 0 -1.58944 
720 1 720 1.07838 0.719616 0 -1.09819 
721 1 721 1.07832 0.759629 0 -0.555486 
722 1 722 1.07828 0.799646 0 -0.162724 
723 1 723 1.07824 0.839663 0 0.00994479 
724 1 724 1.07821 0.879686 0 0.0375688 
725 1 725 1.07818 0.919715 0 -0.0933538 
726 1 726 1.07816 0.959751 0 -0.123802 
727 1 727 1.07814 0.999794 0 -0.0740019 
728 1 728 1.12 0 0 0 
729 1 729 1.11988 0.0399555 0 -0.209767 
730 1 730 1.11977 0.0799155 0 -0.672186 
731 1 731 1.11967 0.119876 0 -1.15339 
732 1 732 1.11957 0.159838 0 -1.19052 
733 1 733 1.11946 0.1998 0 -0.944803 
734 1 734 1.11936 0.239761 0 -0.586254 
735 1 735 1.11924 0.279724 0 -0.351511 
736 1 736 1.11913 0.319689 0 -0.407702 
737 1 737 1.11902 0.359658 0 -0.689422 
738 1 738 1.11892 0.399632 0 -1.07838 
739 1 739 1.11882 0.439613 0 -1.48633 
740 1 740 1.11873 0.479598 0 -1.70352 
741 1 741 1.11865 0.51959 0 -1.88198 
742 1 742 1.11857 0.559587 0 -2.10258 
743 1 743 1.1185 0.599587 0 -2.1661 
744 1 744 1.11842 0.639592 0 -2.18775 
745 1 745 1.11835 0.679602 0 -1.95692 
746 1 746 1.11829 0.719617 0 -1.40439 
747 1 747 1.11824 0.759632 0 -0.788761 
748 1 748 1.11819 0.799652 0 -0.405561 
749 1 749 1.11815 0.839674 0 -0.209298 
750 1 750 1.11811 0.879701 0 -0.169122 
751 1 751 1.11809 0.919732 0 -0.301972 
752 1 752 1.11806 0.95977 0 -0.37202 
753 1 753 1.11803 0.999815 0 -0.399425 
754 1 754 1.16 0 0 0 
755 1 755 1.15988 0.0399574 0 0.0575198 
756 1 756 1.15976 0.0799169 0 -0.468212 
757 1 757 1.15966 0.119878 0 -1.20824 
758 1 758 1.15956 0.15984 0 -1.43246 
759 1 759 1.15946 0.199801 0 -1.26942 
760 1 760 1.15935 0.239763 0 -0.926682 
761 1 761 1.15924 0.279724 0 -0.578948 
762 1 762 1.15912 0.319688 0 -0.447019 
763 1 763 1.15901 0.359656 0 -0.55438 
764 1 764 1.15889 0.399628 0 -0.876221 
765 1 765 1.15879 0.439609 0 -1.3512 
766 1 766 1.1587 0.479595 0 -1.72685 
767 1 767 1.15861 0.519588 0 -2.04834 
768 1 768 1.15852 0.559586 0 -2.37616 
769 1 769 1.15843 0.599592 0 -2.51113 
770 1 770 1.15836 0.639603 0 -2.49248 
771 1 771 1.1583 0.679617 0 -2.21079 
772 1 772 1.15823 0.719633 0 -1.68586 
773 1 773 1.15817 0.759651 0 -1.14674 
774 1 774 1.15812 0.799673 0 -0.826257 