ITEM: TIMESTEP
0
ITEM: NUMBER OF ATOMS
7127
ITEM: BOX BOUNDS sm sm sm
0 4
0 2
0 0
ITEM: ATOMS id type tag x y z vx 
0 1 0 0 0 0 0 
1 1 1 0 0.04 0 0 
2 1 2 0 0.08 0 0 
3 1 3 0 0.12 0 0 
4 1 4 0 0.16 0 0 
5 1 5 0 0.2 0 0 
6 1 6 0 0.24 0 0 
7 1 7 0 0.28 0 0 
8 1 8 0 0.32 0 0 
9 1 9 0 0.36 0 0 
10 1 10 0 0.4 0 0 
11 1 11 0 0.44 0 0 
12 1 12 0 0.48 0 0 
13 1 13 0 0.52 0 0 
14 1 14 0 0.56 0 0 
15 1 15 0 0.6 0 0 
16 1 16 0 0.64 0 0 
17 1 17 0 0.68 0 0 
18 1 18 0 0.72 0 0 
19 1 19 0 0.76 0 0 
20 1 20 0 0.8 0 0 
21 1 21 0 0.84 0 0 
22 1 22 0 0.88 0 0 
23 1 23 0 0.92 0 0 
24 1 24 0 0.96 0 0 
25 1 25 0 1 0 0 
26 1 26 0.04 0 0 0 
27 1 27 0.0399971 0.0399953 0 0.306998 
28 1 28 0.0399946 0.0799938 0 0.320359 
29 1 29 0.0399895 0.119993 0 0.09134 
30 1 30 0.0399841 0.159992 0 0.00583245 
31 1 31 0.0399793 0.199991 0 -0.0223609 
32 1 32 0.0399799 0.239989 0 -0.261923 
33 1 33 0.0399767 0.279985 0 -0.222331 
34 1 34 0.0399745 0.319983 0 -0.32333 
35 1 35 0.0399743 0.359979 0 -0.308543 
36 1 36 0.0399689 0.39998 0 -0.15418 
37 1 37 0.0399672 0.439982 0 -0.229754 
38 1 38 0.0399638 0.479988 0 -0.203659 
39 1 39 0.0399588 0.519994 0 -0.296044 
40 1 40 0.0399554 0.560003 0 -0.460742 
41 1 41 0.039953 0.600007 0 -0.466765 
42 1 42 0.0399482 0.640014 0 -0.525357 
43 1 43 0.0399481 0.680017 0 -0.326085 
44 1 44 0.0399402 0.720025 0 -0.331504 
45 1 45 0.0399427 0.760028 0 -0.34006 
46 1 46 0.0399321 0.80004 0 -0.374427 
47 1 47 0.0399342 0.840046 0 -0.484434 
48 1 48 0.0399203 0.880065 0 -0.494359 
49 1 49 0.0399191 0.920079 0 -0.282613 
50 1 50 0.0398966 0.960115 0 -0.386041 
51 1 51 0.039818 1.00019 0 -0.929793 
52 1 52 0.08 0 0 0 
53 1 53 0.0799981 0.0399945 0 0.259117 
54 1 54 0.0799887 0.0799862 0 0.421318 
55 1 55 0.0799779 0.119982 0 0.39403 
56 1 56 0.0799691 0.159979 0 0.234367 
57 1 57 0.0799607 0.199977 0 0.0294992 
58 1 58 0.0799598 0.239975 0 -0.39807 
59 1 59 0.0799534 0.279972 0 -0.363173 
60 1 60 0.0799496 0.319971 0 -0.459346 
61 1 61 0.0799468 0.35997 0 -0.355741 
62 1 62 0.0799372 0.399973 0 -0.117783 
63 1 63 0.079931 0.439977 0 -0.189629 
64 1 64 0.0799225 0.479986 0 -0.181593 
65 1 65 0.0799121 0.519996 0 -0.492369 
66 1 66 0.0799071 0.560009 0 -0.841034 
67 1 67 0.0799008 0.60002 0 -0.856334 
68 1 68 0.0798939 0.640033 0 -0.846422 
69 1 69 0.0798899 0.680043 0 -0.39192 
70 1 70 0.079879 0.720056 0 -0.22301 
71 1 71 0.0798745 0.76007 0 -0.356517 
72 1 72 0.0798618 0.800088 0 -0.688047 
73 1 73 0.0798538 0.84011 0 -1.11008 
74 1 74 0.079835 0.880136 0 -1.06672 
75 1 75 0.0798156 0.920176 0 -0.990026 
76 1 76 0.0797687 0.96023 0 -1.04172 
77 1 77 0.0797032 1.00027 0 -1.25102 
78 1 78 0.12 0 0 0 
79 1 79 0.119997 0.0399888 0 0.0660423 
80 1 80 0.119982 0.0799775 0 0.401083 
81 1 81 0.119966 0.11997 0 0.650949 
82 1 82 0.119954 0.159966 0 0.352163 
83 1 83 0.119943 0.199962 0 0.00969637 
84 1 84 0.119938 0.239962 0 -0.35419 
85 1 85 0.11993 0.279962 0 -0.266947 
86 1 86 0.119922 0.319964 0 -0.245027 
87 1 87 0.119916 0.359967 0 -0.0204084 
88 1 88 0.119902 0.399973 0 0.216749 
89 1 89 0.119893 0.43998 0 0.197564 
90 1 90 0.119879 0.479992 0 0.13065 
91 1 91 0.119866 0.520004 0 -0.450139 
92 1 92 0.119856 0.56002 0 -0.954216 
93 1 93 0.119848 0.600037 0 -1.05047 
94 1 94 0.119838 0.640056 0 -0.946143 
95 1 95 0.11983 0.680075 0 -0.315705 
96 1 96 0.119816 0.720098 0 0.00645474 
97 1 97 0.119805 0.760119 0 -0.145658 
98 1 98 0.119784 0.800147 0 -0.8486 
99 1 99 0.119769 0.840175 0 -1.61278 
100 1 100 0.11974 0.880215 0 -1.71587 
101 1 101 0.119706 0.920258 0 -1.80771 
102 1 102 0.11966 0.960306 0 -1.63177 
103 1 103 0.119605 1.00035 0 -1.48638 
104 1 104 0.16 0 0 0 
105 1 105 0.159994 0.0399831 0 -0.1858 
106 1 106 0.159977 0.0799709 0 0.175204 
107 1 107 0.159957 0.119961 0 0.657608 
108 1 108 0.159939 0.159955 0 0.490541 
109 1 109 0.159924 0.199951 0 0.264906 
110 1 110 0.159913 0.239952 0 0.0505617 
111 1 111 0.159902 0.279956 0 0.0956611 
112 1 112 0.159892 0.319961 0 0.203846 
113 1 113 0.159882 0.359968 0 0.506434 
114 1 114 0.159866 0.399978 0 0.718585 
115 1 115 0.159852 0.439989 0 0.733929 
116 1 116 0.159832 0.480003 0 0.480756 
117 1 117 0.159816 0.52002 0 -0.288301 
118 1 118 0.159802 0.560038 0 -0.835551 
119 1 119 0.159788 0.600061 0 -0.995828 
120 1 120 0.159776 0.640085 0 -0.754565 
121 1 121 0.159761 0.680112 0 0.00491302 
122 1 122 0.159744 0.720142 0 0.32047 
123 1 123 0.159728 0.760171 0 0.121127 
124 1 124 0.1597 0.800205 0 -0.850263 
125 1 125 0.15968 0.840239 0 -1.89242 
126 1 126 0.15964 0.880281 0 -2.33205 
127 1 127 0.159604 0.920321 0 -2.56658 
128 1 128 0.159558 0.960368 0 -2.17156 
129 1 129 0.159503 1.00041 0 -1.90889 
130 1 130 0.2 0 0 0 
131 1 131 0.199989 0.0399804 0 -0.300942 
132 1 132 0.19997 0.079967 0 0.0355972 
133 1 133 0.199947 0.119954 0 0.631922 
134 1 134 0.199925 0.159946 0 0.634218 
135 1 135 0.199906 0.199943 0 0.507904 
136 1 136 0.199889 0.239946 0 0.433357 
137 1 137 0.199874 0.279952 0 0.473054 
138 1 138 0.199861 0.319963 0 0.72787 
139 1 139 0.199844 0.359974 0 1.09386 
140 1 140 0.199828 0.399987 0 1.22379 
141 1 141 0.199809 0.440001 0 1.27067 
142 1 142 0.199786 0.480018 0 0.779779 
143 1 143 0.199768 0.520037 0 -0.0956443 
144 1 144 0.199748 0.560059 0 -0.628632 
145 1 145 0.19973 0.600086 0 -0.849284 
146 1 146 0.199714 0.640117 0 -0.498164 
147 1 147 0.199694 0.68015 0 0.286344 
148 1 148 0.199672 0.720186 0 0.629548 
149 1 149 0.19965 0.760222 0 0.37398 
150 1 150 0.199618 0.80026 0 -0.8065 
151 1 151 0.19959 0.840298 0 -1.98661 
152 1 152 0.199545 0.880339 0 -2.6797 
153 1 153 0.199507 0.920379 0 -3.06027 
154 1 154 0.199459 0.960424 0 -2.7144 
155 1 155 0.199407 1.00047 0 -2.53121 
156 1 156 0.24 0 0 0 
157 1 157 0.239983 0.0399798 0 -0.331156 
158 1 158 0.239963 0.0799646 0 -0.068591 
159 1 159 0.239939 0.119951 0 0.489368 
160 1 160 0.239913 0.159943 0 0.692209 
161 1 161 0.239888 0.19994 0 0.728531 
162 1 162 0.239864 0.239946 0 0.818966 
163 1 163 0.239843 0.279955 0 0.859512 
164 1 164 0.239827 0.319971 0 1.14314 
165 1 165 0.239807 0.359985 0 1.52366 
166 1 166 0.239788 0.400002 0 1.53791 
167 1 167 0.239764 0.440019 0 1.57803 
168 1 168 0.239736 0.480038 0 0.888926 
169 1 169 0.239716 0.520058 0 -0.06833 
170 1 170 0.239689 0.560083 0 -0.585306 
171 1 171 0.239667 0.600111 0 -0.796491 
172 1 172 0.239643 0.640146 0 -0.315033 
173 1 173 0.239617 0.680184 0 0.365363 
174 1 174 0.239593 0.720224 0 0.703189 
175 1 175 0.239565 0.760266 0 0.489711 
176 1 176 0.239529 0.800308 0 -0.733568 
177 1 177 0.239498 0.84035 0 -1.93739 
178 1 178 0.239452 0.880394 0 -2.80128 
179 1 179 0.239413 0.920435 0 -3.27434 
180 1 180 0.239363 0.96048 0 -3.258 
181 1 181 0.239311 1.00052 0 -3.4084 
182 1 182 0.28 0 0 0 
183 1 183 0.279979 0.0399797 0 -0.198886 
184 1 184 0.279958 0.0799646 0 -0.0428987 
185 1 185 0.279931 0.119953 0 0.299083 
186 1 186 0.279901 0.159945 0 0.71933 
187 1 187 0.279869 0.199945 0 0.953372 
188 1 188 0.279839 0.239951 0 1.12158 
189 1 189 0.279811 0.279964 0 1.16033 
190 1 190 0.279791 0.319981 0 1.28507 
191 1 191 0.279767 0.359999 0 1.56129 
192 1 192 0.279745 0.400019 0 1.4753 
193 1 193 0.279718 0.440037 0 1.37077 
194 1 194 0.279691 0.480058 0 0.593785 
195 1 195 0.279666 0.520079 0 -0.253422 
196 1 196 0.279634 0.560104 0 -0.702445 
197 1 197 0.279608 0.600135 0 -0.835977 
198 1 198 0.279578 0.640171 0 -0.282398 
199 1 199 0.279547 0.680214 0 0.24352 
200 1 200 0.279516 0.720258 0 0.501217 
201 1 201 0.279483 0.760304 0 0.310305 
202 1 202 0.279444 0.800351 0 -0.677822 
203 1 203 0.279407 0.840398 0 -1.74907 
204 1 204 0.27936 0.880445 0 -2.7769 
205 1 205 0.279321 0.92049 0 -3.38216 
206 1 206 0.27927 0.960536 0 -3.81828 
207 1 207 0.279223 1.00058 0 -4.34469 
208 1 208 0.32 0 0 0 
209 1 209 0.319974 0.0399826 0 0.00722501 
210 1 210 0.319951 0.0799691 0 0.110182 
211 1 211 0.319923 0.11996 0 0.164305 
212 1 212 0.319889 0.159953 0 0.625652 
213 1 213 0.319849 0.199955 0 0.94153 
214 1 214 0.319813 0.239962 0 1.07896 
215 1 215 0.319778 0.279975 0 1.14976 
216 1 216 0.319751 0.319993 0 1.13585 
217 1 217 0.319725 0.360012 0 1.30893 
218 1 218 0.3197 0.400035 0 1.24181 
219 1 219 0.31967 0.440055 0 0.928567 
220 1 220 0.319641 0.480078 0 0.089368 
221 1 221 0.319612 0.5201 0 -0.591342 
222 1 222 0.319576 0.560128 0 -0.999308 
223 1 223 0.319542 0.60016 0 -0.99399 
224 1 224 0.319502 0.640199 0 -0.459865 
225 1 225 0.319466 0.680242 0 -0.0975402 
226 1 226 0.31943 0.720289 0 0.153728 
227 1 227 0.319392 0.76034 0 -0.0199553 
228 1 228 0.319352 0.80039 0 -0.71252 
229 1 229 0.319312 0.840442 0 -1.57079 
230 1 230 0.319267 0.880493 0 -2.66221 
231 1 231 0.319229 0.920541 0 -3.44772 
232 1 232 0.319182 0.960587 0 -4.34867 
233 1 233 0.319141 1.00063 0 -5.1549 
234 1 234 0.36 0 0 0 
235 1 235 0.359972 0.0399867 0 0.0767025 
236 1 236 0.359945 0.0799753 0 0.11618 
237 1 237 0.359914 0.119969 0 -0.0489653 
238 1 238 0.359875 0.159964 0 0.393464 
239 1 239 0.359828 0.199967 0 0.828139 
240 1 240 0.359785 0.239974 0 0.997247 
241 1 241 0.359743 0.279986 0 1.06811 
242 1 242 0.359709 0.320004 0 0.92822 
243 1 243 0.35968 0.360025 0 0.90639 
244 1 244 0.359652 0.400049 0 0.759132 
245 1 245 0.359621 0.440071 0 0.255864 
246 1 246 0.359593 0.480097 0 -0.51746 
247 1 247 0.359559 0.520123 0 -0.972285 
248 1 248 0.35952 0.560154 0 -1.31094 
249 1 249 0.359482 0.600188 0 -1.10496 
250 1 250 0.359435 0.64023 0 -0.672403 
251 1 251 0.359394 0.680275 0 -0.579492 
252 1 252 0.359351 0.720324 0 -0.395285 
253 1 253 0.359309 0.760377 0 -0.487238 
254 1 254 0.359265 0.80043 0 -0.848083 
255 1 255 0.359221 0.840485 0 -1.52084 
256 1 256 0.359178 0.880537 0 -2.56714 
257 1 257 0.359141 0.920587 0 -3.51715 
258 1 258 0.3591 0.960633 0 -4.75658 
259 1 259 0.359067 1.00067 0 -5.65325 
260 1 260 0.4 0 0 0 
261 1 261 0.39997 0.0399896 0 0.155495 
262 1 262 0.399938 0.0799802 0 0.0730858 
263 1 263 0.399904 0.119975 0 -0.281956 
264 1 264 0.399859 0.159973 0 0.110265 
265 1 265 0.399806 0.199975 0 0.623704 
266 1 266 0.399757 0.239982 0 0.882703 
267 1 267 0.399706 0.279994 0 0.960122 
268 1 268 0.399666 0.320012 0 0.734892 
269 1 269 0.399631 0.360036 0 0.524414 
270 1 270 0.3996 0.400064 0 0.252948 
271 1 271 0.399567 0.440092 0 -0.293192 
272 1 272 0.399537 0.480123 0 -0.914217 
273 1 273 0.3995 0.520155 0 -1.16741 
274 1 274 0.399457 0.56019 0 -1.39869 
275 1 275 0.399411 0.600228 0 -1.1261 
276 1 276 0.399356 0.64027 0 -0.83696 
277 1 277 0.399311 0.680315 0 -0.913822 
278 1 278 0.399263 0.720365 0 -0.878151 
279 1 279 0.39922 0.760416 0 -0.927485 
280 1 280 0.399175 0.800469 0 -1.00176 
281 1 281 0.399132 0.840523 0 -1.5296 
282 1 282 0.399092 0.880574 0 -2.48404 
283 1 283 0.399056 0.920624 0 -3.58597 
284 1 284 0.399022 0.960667 0 -4.94758 
285 1 285 0.398997 1.0007 0 -5.72743 
286 1 286 0.44 0 0 0 
287 1 287 0.43997 0.0399922 0 0.0817696 
288 1 288 0.439932 0.0799845 0 -0.122169 
289 1 289 0.439891 0.11998 0 -0.464501 
290 1 290 0.439841 0.15998 0 -0.0976782 
291 1 291 0.439783 0.199983 0 0.403679 
292 1 292 0.439727 0.239988 0 0.79033 
293 1 293 0.439668 0.280001 0 0.985885 
294 1 294 0.43962 0.32002 0 0.765997 
295 1 295 0.439578 0.360046 0 0.442926 
296 1 296 0.439543 0.400079 0 0.0658338 
297 1 297 0.439511 0.440112 0 -0.517306 
298 1 298 0.439479 0.480151 0 -1.06095 
299 1 299 0.439441 0.520187 0 -1.22663 
300 1 300 0.439395 0.560228 0 -1.3481 
301 1 301 0.439347 0.600271 0 -1.17974 
302 1 302 0.439293 0.640314 0 -1.12732 
303 1 303 0.439244 0.68036 0 -1.26543 
304 1 304 0.43919 0.720409 0 -1.35254 
305 1 305 0.439145 0.76046 0 -1.34165 
306 1 306 0.439097 0.80051 0 -1.23368 
307 1 307 0.439054 0.84056 0 -1.6454 
308 1 308 0.439015 0.880607 0 -2.42537 
309 1 309 0.438978 0.920653 0 -3.59495 
310 1 310 0.43895 0.960693 0 -4.8519 
311 1 311 0.43893 1.00073 0 -5.37746 
312 1 312 0.48 0 0 0 
313 1 313 0.479967 0.0399949 0 -0.0410526 
314 1 314 0.479926 0.079989 0 -0.289622 
315 1 315 0.479877 0.119988 0 -0.461269 
316 1 316 0.479822 0.159989 0 -0.161879 
317 1 317 0.479758 0.199993 0 0.356231 
318 1 318 0.479695 0.24 0 0.942285 
319 1 319 0.47963 0.280013 0 1.24125 
320 1 320 0.479573 0.320033 0 1.05761 
321 1 321 0.479524 0.360061 0 0.594802 
322 1 322 0.479485 0.400097 0 0.0702782 
323 1 323 0.479451 0.440135 0 -0.548434 
324 1 324 0.479415 0.480177 0 -0.982628 
325 1 325 0.479374 0.520221 0 -1.05414 
326 1 326 0.479328 0.560266 0 -1.1168 
327 1 327 0.479274 0.600311 0 -1.07742 
328 1 328 0.479217 0.640357 0 -1.26985 
329 1 329 0.479166 0.680403 0 -1.54006 
330 1 330 0.479111 0.72045 0 -1.76175 
331 1 331 0.479067 0.760498 0 -1.68531 
332 1 332 0.479019 0.800547 0 -1.50679 
333 1 333 0.478979 0.840592 0 -1.8132 
334 1 334 0.478942 0.880635 0 -2.41696 
335 1 335 0.478906 0.920676 0 -3.56306 
336 1 336 0.478881 0.960711 0 -4.49675 
337 1 337 0.478863 1.00075 0 -4.69737 
338 1 338 0.52 0 0 0 
339 1 339 0.519964 0.0399962 0 0.0367632 
340 1 340 0.519917 0.0799941 0 -0.183027 
341 1 341 0.51986 0.119997 0 -0.14654 
342 1 342 0.519799 0.160003 0 0.072671 
343 1 343 0.519733 0.200009 0 0.53044 
344 1 344 0.519664 0.240019 0 1.18433 
345 1 345 0.519593 0.28003 0 1.4777 
346 1 346 0.519529 0.32005 0 1.40511 
347 1 347 0.519471 0.360078 0 0.827937 
348 1 348 0.519429 0.400113 0 0.152583 
349 1 349 0.519392 0.440153 0 -0.36202 
350 1 350 0.519354 0.480196 0 -0.680054 
351 1 351 0.519312 0.520243 0 -0.746276 
352 1 352 0.519263 0.560291 0 -0.898974 
353 1 353 0.519212 0.600339 0 -1.16766 
354 1 354 0.51916 0.640388 0 -1.58376 
355 1 355 0.519107 0.680436 0 -1.90946 
356 1 356 0.519051 0.720485 0 -2.1989 
357 1 357 0.519006 0.760533 0 -2.05921 
358 1 358 0.518957 0.800578 0 -1.84829 
359 1 359 0.518918 0.840621 0 -1.97645 
360 1 360 0.518879 0.880659 0 -2.40074 
361 1 361 0.518843 0.920695 0 -3.41255 
362 1 362 0.518817 0.960727 0 -3.88863 
363 1 363 0.518795 1.00076 0 -3.78755 
364 1 364 0.56 0 0 0 
365 1 365 0.559954 0.0399972 0 0.2008 
366 1 366 0.559901 0.0800013 0 0.10213 
367 1 367 0.559838 0.120009 0 0.339744 
368 1 368 0.559773 0.160019 0 0.501764 
369 1 369 0.559705 0.200029 0 0.805864 
370 1 370 0.559634 0.240041 0 1.40429 
371 1 371 0.559559 0.280054 0 1.69098 
372 1 372 0.559489 0.320072 0 1.66864 
373 1 373 0.559424 0.360098 0 1.00038 
374 1 374 0.559376 0.400129 0 0.258848 
375 1 375 0.559334 0.440168 0 -0.197574 
376 1 376 0.559291 0.480211 0 -0.48582 
377 1 377 0.559246 0.520257 0 -0.55973 
378 1 378 0.559195 0.560306 0 -0.757203 
379 1 379 0.559141 0.600356 0 -1.2665 
380 1 380 0.559086 0.640406 0 -1.85543 
381 1 381 0.559032 0.680456 0 -2.22551 
382 1 382 0.558979 0.720506 0 -2.53919 
383 1 383 0.558935 0.760554 0 -2.37025 
384 1 384 0.558888 0.8006 0 -2.18412 
385 1 385 0.558853 0.840642 0 -2.14447 
386 1 386 0.558814 0.880679 0 -2.40307 
387 1 387 0.558781 0.920713 0 -3.14892 
388 1 388 0.558752 0.960743 0 -3.18586 
389 1 389 0.558726 1.00078 0 -2.92074 
390 1 390 0.6 0 0 0 
391 1 391 0.599944 0.0399986 0 0.400288 
392 1 392 0.599882 0.0800076 0 0.596292 
393 1 393 0.599812 0.12002 0 1.00286 
394 1 394 0.599746 0.160033 0 1.05999 
395 1 395 0.599676 0.200048 0 1.16355 
396 1 396 0.599603 0.240062 0 1.5327 
397 1 397 0.599528 0.280076 0 1.70614 
398 1 398 0.599452 0.320093 0 1.61497 
399 1 399 0.599384 0.360114 0 0.849312 
400 1 400 0.59933 0.40014 0 0.164009 
401 1 401 0.599284 0.440175 0 -0.237856 
402 1 402 0.599238 0.480213 0 -0.410516 
403 1 403 0.599188 0.520258 0 -0.384442 
404 1 404 0.599134 0.560306 0 -0.690192 
405 1 405 0.599081 0.600357 0 -1.38829 
406 1 406 0.599028 0.640411 0 -2.12157 
407 1 407 0.598974 0.680464 0 -2.57721 
408 1 408 0.598921 0.720517 0 -2.81503 
409 1 409 0.598875 0.760567 0 -2.62033 
410 1 410 0.59883 0.800615 0 -2.45831 
411 1 411 0.598794 0.840659 0 -2.24156 
412 1 412 0.598754 0.880698 0 -2.37903 
413 1 413 0.598723 0.920733 0 -2.79585 
414 1 414 0.598689 0.960764 0 -2.5073 
415 1 415 0.598657 1.0008 0 -2.23506 
416 1 416 0.64 0 0 0 
417 1 417 0.639927 0.0400001 0 0.599124 
418 1 418 0.639858 0.0800099 0 1.07962 
419 1 419 0.639785 0.120024 0 1.52255 
420 1 420 0.639715 0.16004 0 1.44111 
421 1 421 0.639644 0.200056 0 1.33734 
422 1 422 0.639571 0.240073 0 1.38148 
423 1 423 0.639498 0.280087 0 1.36792 
424 1 424 0.63942 0.320104 0 1.25623 
425 1 425 0.639348 0.360122 0 0.51671 
426 1 426 0.639289 0.400144 0 -0.0698218 
427 1 427 0.639235 0.440175 0 -0.368381 
428 1 428 0.639181 0.480211 0 -0.421856 
429 1 429 0.639126 0.520255 0 -0.39317 
430 1 430 0.639068 0.560304 0 -0.768976 
431 1 431 0.639009 0.600355 0 -1.47123 
432 1 432 0.638951 0.64041 0 -2.2265 
433 1 433 0.638895 0.680465 0 -2.63589 
434 1 434 0.638845 0.72052 0 -2.72249 
435 1 435 0.638798 0.760574 0 -2.63181 
436 1 436 0.638756 0.800625 0 -2.53597 
437 1 437 0.638721 0.840672 0 -2.17599 
438 1 438 0.638685 0.880715 0 -2.219 
439 1 439 0.638658 0.920755 0 -2.28704 
440 1 440 0.638623 0.960788 0 -1.84294 
441 1 441 0.638591 1.00082 0 -1.69238 
442 1 442 0.68 0 0 0 
443 1 443 0.679914 0.0399998 0 0.709801 
444 1 444 0.679837 0.080008 0 1.31858 
445 1 445 0.679757 0.120021 0 1.73039 
446 1 446 0.679684 0.160036 0 1.60891 
447 1 447 0.679612 0.200052 0 1.29524 
448 1 448 0.679539 0.240069 0 1.05207 
449 1 449 0.679466 0.280085 0 0.896415 
450 1 450 0.679388 0.320101 0 0.742119 
451 1 451 0.679315 0.360117 0 0.152195 
452 1 452 0.679249 0.400137 0 -0.310344 
453 1 453 0.67919 0.440165 0 -0.540116 
454 1 454 0.679132 0.4802 0 -0.432876 
455 1 455 0.67907 0.520243 0 -0.389731 
456 1 456 0.679008 0.560292 0 -0.73866 
457 1 457 0.678948 0.600347 0 -1.32821 
458 1 458 0.678889 0.640405 0 -2.07694 
459 1 459 0.678833 0.680464 0 -2.42674 
460 1 460 0.67878 0.720523 0 -2.42591 
461 1 461 0.678731 0.76058 0 -2.47531 
462 1 462 0.67869 0.800633 0 -2.39891 
463 1 463 0.678653 0.840685 0 -2.01405 
464 1 464 0.678617 0.880732 0 -2.01685 
465 1 465 0.678591 0.920776 0 -1.80433 
466 1 466 0.678556 0.960814 0 -1.43829 
467 1 467 0.678527 1.00085 0 -1.50299 
468 1 468 0.72 0 0 0 
469 1 469 0.719902 0.0399984 0 0.653911 
470 1 470 0.719816 0.0800035 0 1.32113 
471 1 471 0.719732 0.120011 0 1.70926 
472 1 472 0.719654 0.160022 0 1.60548 
473 1 473 0.719577 0.200037 0 1.12412 
474 1 474 0.719503 0.240053 0 0.668922 
475 1 475 0.719431 0.28007 0 0.393568 
476 1 476 0.719354 0.320086 0 0.202577 
477 1 477 0.719281 0.360102 0 -0.0893721 
478 1 478 0.71921 0.400122 0 -0.318245 
479 1 479 0.719143 0.44015 0 -0.511723 
480 1 480 0.719075 0.480186 0 -0.375826 
481 1 481 0.719005 0.520231 0 -0.425168 
482 1 482 0.718939 0.560282 0 -0.748557 
483 1 483 0.718871 0.600339 0 -1.13215 
484 1 484 0.718805 0.640399 0 -1.71339 
485 1 485 0.718748 0.680461 0 -1.93288 
486 1 486 0.718696 0.720521 0 -1.86515 
487 1 487 0.718647 0.76058 0 -2.00733 
488 1 488 0.718607 0.800636 0 -1.95494 
489 1 489 0.718569 0.840692 0 -1.66505 
490 1 490 0.718539 0.880744 0 -1.61701 
491 1 491 0.718516 0.920793 0 -1.21768 
492 1 492 0.718488 0.960835 0 -1.05833 
493 1 493 0.718467 1.00087 0 -1.30436 
494 1 494 0.76 0 0 0 
495 1 495 0.759897 0.0399966 0 0.552337 
496 1 496 0.759802 0.0799963 0 1.24303 
497 1 497 0.759712 0.119998 0 1.5448 
498 1 498 0.759627 0.160004 0 1.44683 
499 1 499 0.759545 0.200015 0 0.938827 
500 1 500 0.759467 0.24003 0 0.412488 
501 1 501 0.759395 0.280046 0 0.0694108 
502 1 502 0.759319 0.320062 0 -0.0460558 
503 1 503 0.759246 0.36008 0 -0.00790938 
504 1 504 0.759167 0.4001 0 -0.106267 
505 1 505 0.759094 0.440129 0 -0.314535 
506 1 506 0.759021 0.480167 0 -0.252082 
507 1 507 0.758947 0.520214 0 -0.437437 
508 1 508 0.758877 0.560268 0 -0.681484 
509 1 509 0.758807 0.600328 0 -0.855174 
510 1 510 0.758742 0.640391 0 -1.19934 
511 1 511 0.758684 0.680456 0 -1.24867 
512 1 512 0.758629 0.720519 0 -1.17914 
513 1 513 0.758579 0.760579 0 -1.44126 
514 1 514 0.758537 0.800636 0 -1.47772 
515 1 515 0.758494 0.840695 0 -1.34431 
516 1 516 0.758463 0.880749 0 -1.21696 
517 1 517 0.758439 0.920802 0 -0.764681 
518 1 518 0.758417 0.960847 0 -0.836263 
519 1 519 0.758406 1.00088 0 -1.13782 
520 1 520 0.8 0 0 0 
521 1 521 0.799891 0.0399939 0 0.392715 
522 1 522 0.799791 0.0799876 0 1.01 
523 1 523 0.799696 0.119984 0 1.27235 
524 1 524 0.799602 0.159987 0 1.32422 
525 1 525 0.799514 0.199994 0 0.935792 
526 1 526 0.799433 0.240006 0 0.400348 
527 1 527 0.799358 0.280022 0 -0.00908143 
528 1 528 0.799283 0.320039 0 -0.0281943 
529 1 529 0.799209 0.360059 0 0.294677 
530 1 530 0.799126 0.400082 0 0.294642 
531 1 531 0.799044 0.440113 0 0.0571851 
532 1 532 0.798959 0.480154 0 -0.0908833 
533 1 533 0.798879 0.520203 0 -0.493237 
534 1 534 0.798802 0.560258 0 -0.680812 
535 1 535 0.798724 0.600319 0 -0.708561 
536 1 536 0.798655 0.640382 0 -0.786037 
537 1 537 0.798595 0.680446 0 -0.686987 
538 1 538 0.798543 0.720508 0 -0.680268 
539 1 539 0.798494 0.760569 0 -0.9145 
540 1 540 0.798449 0.800627 0 -0.917338 
541 1 541 0.798407 0.840687 0 -0.951369 
542 1 542 0.798379 0.880744 0 -0.774705 
543 1 543 0.798355 0.920799 0 -0.390043 
544 1 544 0.798344 0.960847 0 -0.680414 
545 1 545 0.798345 1.00088 0 -0.940418 
546 1 546 0.84 0 0 0 
547 1 547 0.839893 0.0399895 0 0.24911 
548 1 548 0.839786 0.0799806 0 0.774589 
549 1 549 0.839684 0.119974 0 1.06364 
550 1 550 0.839583 0.159973 0 1.32131 
551 1 551 0.839489 0.199976 0 1.08927 
552 1 552 0.839401 0.239986 0 0.585944 
553 1 553 0.839323 0.280002 0 0.141622 
554 1 554 0.839248 0.32002 0 0.202192 
555 1 555 0.839171 0.360042 0 0.695885 
556 1 556 0.839082 0.400067 0 0.72864 
557 1 557 0.838993 0.440099 0 0.398122 
558 1 558 0.838902 0.48014 0 -0.0853728 
559 1 559 0.838818 0.520189 0 -0.712397 
560 1 560 0.838736 0.560244 0 -0.821821 
561 1 561 0.83866 0.600306 0 -0.691828 
562 1 562 0.838594 0.640369 0 -0.423225 
563 1 563 0.838532 0.680434 0 -0.193209 
564 1 564 0.838478 0.720496 0 -0.305481 
565 1 565 0.838427 0.760556 0 -0.522551 
566 1 566 0.838378 0.800615 0 -0.594311 
567 1 567 0.83833 0.840673 0 -0.808696 
568 1 568 0.838299 0.88073 0 -0.505963 
569 1 569 0.838272 0.920785 0 -0.140366 
570 1 570 0.838268 0.960834 0 -0.489323 
571 1 571 0.838277 1.00087 0 -0.592208 
572 1 572 0.88 0 0 0 
573 1 573 0.879888 0.0399866 0 0.11334 
574 1 574 0.879779 0.0799755 0 0.599356 
575 1 575 0.879675 0.119966 0 0.922753 
576 1 576 0.879566 0.159963 0 1.23938 
577 1 577 0.879467 0.199964 0 1.14093 
578 1 578 0.879372 0.239973 0 0.765599 
579 1 579 0.879291 0.279987 0 0.326626 
580 1 580 0.879213 0.320006 0 0.39199 
581 1 581 0.879132 0.36003 0 0.884102 
582 1 582 0.879039 0.400057 0 0.933272 
583 1 583 0.878941 0.440092 0 0.624367 
584 1 584 0.878841 0.480134 0 -0.0605861 
585 1 585 0.878749 0.520184 0 -0.791354 
586 1 586 0.87866 0.560238 0 -0.863046 
587 1 587 0.878576 0.600297 0 -0.694765 
588 1 588 0.878503 0.640356 0 -0.228956 
589 1 589 0.878439 0.680417 0 -0.018888 
590 1 590 0.878389 0.720477 0 -0.235377 
591 1 591 0.87834 0.760537 0 -0.388597 
592 1 592 0.87829 0.800595 0 -0.489457 
593 1 593 0.878244 0.840651 0 -0.735438 
594 1 594 0.878213 0.880707 0 -0.341941 
595 1 595 0.878185 0.920761 0 -0.0862081 
596 1 596 0.878189 0.96081 0 -0.384508 
597 1 597 0.878204 1.00085 0 -0.259353 
598 1 598 0.92 0 0 0 
599 1 599 0.919888 0.0399838 0 -0.0248399 
600 1 600 0.919775 0.0799709 0 0.300133 
601 1 601 0.919666 0.119962 0 0.60944 
602 1 602 0.919553 0.159958 0 1.00172 
603 1 603 0.91945 0.199958 0 1.09655 
604 1 604 0.919349 0.239965 0 0.861792 
605 1 605 0.919262 0.279977 0 0.427232 
606 1 606 0.919179 0.319997 0 0.494502 
607 1 607 0.919094 0.360022 0 0.970681 
608 1 608 0.918996 0.400051 0 1.06219 
609 1 609 0.91889 0.440086 0 0.719472 
610 1 610 0.918784 0.480127 0 -0.139494 
611 1 611 0.918688 0.520174 0 -0.866919 
612 1 612 0.918594 0.560227 0 -0.900301 
613 1 613 0.918512 0.600285 0 -0.699619 
614 1 614 0.918443 0.640344 0 -0.101316 
615 1 615 0.918378 0.680405 0 0.0363147 
616 1 616 0.918325 0.720463 0 -0.256756 
617 1 617 0.918271 0.760521 0 -0.429084 
618 1 618 0.918219 0.800577 0 -0.615379 
619 1 619 0.918169 0.84063 0 -0.841321 
620 1 620 0.918133 0.880684 0 -0.410049 
621 1 621 0.918102 0.920734 0 -0.144262 
622 1 622 0.918107 0.960782 0 -0.169199 
623 1 623 0.918124 1.00082 0 0.214825 
624 1 624 0.96 0 0 0 
625 1 625 0.959883 0.0399815 0 -0.14925 
626 1 626 0.959768 0.0799679 0 -0.0543823 
627 1 627 0.959658 0.119959 0 0.17531 
628 1 628 0.95954 0.159955 0 0.611999 
629 1 629 0.959433 0.199955 0 0.8527 
630 1 630 0.959327 0.23996 0 0.732287 
631 1 631 0.959234 0.279973 0 0.3786 
632 1 632 0.959144 0.319993 0 0.429005 
633 1 633 0.959052 0.360019 0 0.795752 
634 1 634 0.958949 0.40005 0 0.952388 
635 1 635 0.958838 0.440087 0 0.715976 
636 1 636 0.958724 0.480128 0 -0.0552936 
637 1 637 0.95862 0.520175 0 -0.655914 
638 1 638 0.958518 0.560226 0 -0.651054 
639 1 639 0.958428 0.60028 0 -0.403535 
640 1 640 0.958351 0.640334 0 0.181917 
641 1 641 0.958283 0.68039 0 0.119194 
642 1 642 0.958231 0.720446 0 -0.304854 
643 1 643 0.958178 0.760502 0 -0.594363 
644 1 644 0.95813 0.800557 0 -0.833579 
645 1 645 0.958083 0.840608 0 -0.948518 
646 1 646 0.958048 0.880659 0 -0.54536 
647 1 647 0.958018 0.920706 0 -0.297479 
648 1 648 0.958023 0.960752 0 -0.110154 
649 1 649 0.958039 1.00079 0 0.420358 
650 1 650 1 0 0 0 
651 1 651 0.999882 0.0399808 0 -0.256572 
652 1 652 0.999762 0.0799673 0 -0.347666 
653 1 653 0.999647 0.119959 0 -0.247503 
654 1 654 0.999529 0.159954 0 0.0893004 
655 1 655 0.999419 0.199955 0 0.390502 
656 1 656 0.999307 0.239961 0 0.428596 
657 1 657 0.999207 0.279973 0 0.265258 
658 1 658 0.999108 0.319993 0 0.299 
659 1 659 0.999011 0.36002 0 0.51013 
660 1 660 0.998902 0.400052 0 0.751497 
661 1 661 0.998787 0.440089 0 0.718013 
662 1 662 0.99867 0.480127 0 0.213416 
663 1 663 0.99856 0.520171 0 -0.218789 
664 1 664 0.998454 0.56022 0 -0.251637 
665 1 665 0.998366 0.600273 0 -0.0671702 
666 1 666 0.998291 0.640327 0 0.366507 
667 1 667 0.998222 0.680382 0 0.16851 
668 1 668 0.998165 0.720436 0 -0.283949 
669 1 669 0.998108 0.76049 0 -0.73777 
670 1 670 0.998059 0.800543 0 -1.09432 
671 1 671 0.998008 0.840591 0 -1.17023 
672 1 672 0.997969 0.880639 0 -0.832384 
673 1 673 0.997938 0.920683 0 -0.52835 
674 1 674 0.997939 0.960726 0 -0.116944 
675 1 675 0.997952 1.00077 0 0.504011 
676 1 676 1.04 0 0 0 
677 1 677 1.03987 0.0399816 0 -0.42304 
678 1 678 1.03975 0.0799671 0 -0.717463 
679 1 679 1.03964 0.119959 0 -0.714203 
680 1 680 1.03952 0.159956 0 -0.421677 
681 1 681 1.0394 0.199959 0 -0.0337612 
682 1 682 1.03929 0.239966 0 0.169273 
683 1 683 1.03918 0.279979 0 0.216385 
684 1 684 1.03907 0.32 0 0.252643 
685 1 685 1.03897 0.360027 0 0.326263 
686 1 686 1.03885 0.400061 0 0.591941 
687 1 687 1.03873 0.440097 0 0.666885 
688 1 688 1.03861 0.480135 0 0.442292 
689 1 689 1.03849 0.520178 0 0.247969 
690 1 690 1.03838 0.560224 0 0.28517 
691 1 691 1.03828 0.600272 0 0.454145 
692 1 692 1.0382 0.640321 0 0.657535 
693 1 693 1.03813 0.680371 0 0.278698 
694 1 694 1.03807 0.720422 0 -0.256199 
695 1 695 1.03801 0.760475 0 -0.876928 
696 1 696 1.03797 0.800527 0 -1.26758 
697 1 697 1.03792 0.840575 0 -1.33124 
698 1 698 1.03788 0.880622 0 -1.12033 
699 1 699 1.03786 0.920664 0 -0.766489 
700 1 700 1.03785 0.960705 0 -0.213831 
701 1 701 1.03786 1.00075 0 0.414359 
702 1 702 1.08 0 0 0 
703 1 703 1.07988 0.0399826 0 -0.563715 
704 1 704 1.07975 0.0799686 0 -0.957597 
705 1 705 1.07963 0.119963 0 -0.985669 
706 1 706 1.0795 0.159961 0 -0.73796 
707 1 707 1.07938 0.199967 0 -0.296065 
708 1 708 1.07926 0.239974 0 0.0768408 
709 1 709 1.07915 0.279989 0 0.308554 
710 1 710 1.07903 0.32001 0 0.244006 
711 1 711 1.07892 0.360038 0 0.119684 
712 1 712 1.0788 0.400071 0 0.404486 
713 1 713 1.07868 0.440105 0 0.637502 
714 1 714 1.07856 0.480141 0 0.726388 
715 1 715 1.07844 0.52018 0 0.706821 
716 1 716 1.07832 0.560222 0 0.709252 
717 1 717 1.07823 0.600268 0 0.746867 
718 1 718 1.07814 0.640316 0 0.691378 
719 1 719 1.07807 0.680365 0 0.228459 
720 1 720 1.078 0.720415 0 -0.316518 
721 1 721 1.07794 0.760465 0 -1.03595 
722 1 722 1.07789 0.800515 0 -1.44574 
723 1 723 1.07784 0.840564 0 -1.57049 
724 1 724 1.0778 0.880609 0 -1.47274 
725 1 725 1.07777 0.920651 0 -1.07378 
726 1 726 1.07777 0.960691 0 -0.485284 
727 1 727 1.07777 1.00073 0 0.0927557 
728 1 728 1.12 0 0 0 
729 1 729 1.11987 0.0399842 0 -0.637759 
730 1 730 1.11974 0.0799717 0 -1.0666 
731 1 731 1.11961 0.119967 0 -1.1178 
732 1 732 1.11948 0.159967 0 -0.911558 
733 1 733 1.11936 0.199974 0 -0.445765 
734 1 734 1.11923 0.239985 0 0.043181 
735 1 735 1.11911 0.280002 0 0.444543 
736 1 736 1.11898 0.320023 0 0.379899 
737 1 737 1.11887 0.360051 0 0.106898 
738 1 738 1.11875 0.400084 0 0.259055 
739 1 739 1.11863 0.440118 0 0.510521 
740 1 740 1.1185 0.480154 0 0.821414 
741 1 741 1.11837 0.520191 0 0.932456 
742 1 742 1.11825 0.56023 0 0.898457 
743 1 743 1.11815 0.60027 0 0.765915 
744 1 744 1.11805 0.640311 0 0.47836 
745 1 745 1.11797 0.680354 0 0.000930158 
746 1 746 1.1179 0.720401 0 -0.528805 
747 1 747 1.11784 0.76045 0 -1.24957 
748 1 748 1.11779 0.800501 0 -1.5835 
749 1 749 1.11774 0.840551 0 -1.71731 
750 1 750 1.11771 0.880597 0 -1.65644 
751 1 751 1.11769 0.92064 0 -1.27303 
752 1 752 1.11768 0.96068 0 -0.718685 
753 1 753 1.11769 1.00072 0 -0.170442 
754 1 754 1.16 0 0 0 
755 1 755 1.15987 0.0399872 0 -0.791311 
756 1 756 1.15974 0.0799771 0 -1.22518 
757 1 757 1.1596 0.119974 0 -1.2307 
758 1 758 1.15947 0.159976 0 -1.04303 
759 1 759 1.15934 0.199985 0 -0.562659 
760 1 760 1.15921 0.239997 0 0.0769704 
761 1 761 1.15907 0.280014 0 0.645849 
762 1 762 1.15894 0.320036 0 0.58022 
763 1 763 1.15882 0.360063 0 0.165843 
764 1 764 1.15869 0.400094 0 0.148912 
765 1 765 1.15858 0.440127 0 0.359813 
766 1 766 1.15845 0.480161 0 0.755838 
767 1 767 1.15832 0.520194 0 0.948705 
768 1 768 1.1582 0.56023 0 0.919408 
769 1 769 1.15809 0.600267 0 0.62487 
770 1 770 1.158 0.640308 0 0.131621 
771 1 771 1.15791 0.68035 0 -0.350004 
772 1 772 1.15783 0.720395 0 -0.831418 
773 1 773 1.15776 0.760441 0 -1.45071 
774 1 774 1.15771 0.800489 0 -1.65429 
775 1 775 1.15766 0.840539 0 -1.76022 
776 1 776 1.15763 0.880586 0 -1.68746 
777 1 777 1.1576 0.92063 0 -1.40944 