ITEM: TIMESTEP
0
ITEM: NUMBER OF ATOMS
6875
ITEM: BOX BOUNDS sm sm sm
0 4
0 2
0 0
ITEM: ATOMS id type tag x y z damage s11 s22 s33 s12 s13 s23 vx T ienergy 
1 1 1 0.0200032 0.0200029 0 0 0.0779577 0.069671 0.0472868 0.0265285 0 0 -0.280833 0 0 
2 1 2 0.0200085 0.0600045 0 0 0.138215 0.0541353 0.0616083 0.0262852 0 0 -0.574376 0 0 
3 1 3 0.0200118 0.100002 0 0 0.18857 0.0612278 0.0799908 0.0138865 0 0 -0.539865 0 0 
4 1 4 0.0200151 0.139996 0 0 0.228558 0.0742716 0.0969557 -0.0120144 0 0 -0.315327 0 0 
5 1 5 0.0200147 0.179992 0 0 0.230998 0.0835651 0.10071 -0.0388985 0 0 -0.205647 0 0 
6 1 6 0.0200136 0.219988 0 0 0.212425 0.0868484 0.0958206 -0.0511567 0 0 -0.207543 0 0 
7 1 7 0.0200107 0.259987 0 0 0.178682 0.0811568 0.0832057 -0.0611807 0 0 -0.249477 0 0 
8 1 8 0.0200081 0.299988 0 0 0.13916 0.0755589 0.0687705 -0.0562727 0 0 -0.260308 0 0 
9 1 9 0.0200046 0.339989 0 0 0.0865863 0.0496798 0.0436597 -0.0535939 0 0 -0.122502 0 0 
10 1 10 0.0200018 0.37999 0 0 0.034605 0.0190637 0.0172104 -0.044969 0 0 -0.15459 0 0 
11 1 11 0.0199985 0.419991 0 0 -0.0155147 -0.00485866 -0.00650996 -0.0483396 0 0 -0.0572688 0 0 
12 1 12 0.0199952 0.45999 0 0 -0.0738487 -0.0435784 -0.037618 -0.0457904 0 0 -0.331244 0 0 
13 1 13 0.0199916 0.499989 0 0 -0.118086 -0.0559126 -0.0557585 -0.0529911 0 0 -0.228643 0 0 
14 1 14 0.0199889 0.539989 0 0 -0.148907 -0.072496 -0.0709647 -0.044459 0 0 -0.54031 0 0 
15 1 15 0.0199873 0.579988 0 0 -0.158578 -0.0874247 -0.0788572 -0.0519735 0 0 -0.613562 0 0 
16 1 16 0.0199861 0.619985 0 0 -0.164115 -0.0945109 -0.0829088 -0.0594658 0 0 -1.00686 0 0 
17 1 17 0.0199859 0.659982 0 0 -0.16333 -0.108871 -0.0872649 -0.07538 0 0 -1.04643 0 0 
18 1 18 0.0199863 0.699978 0 0 -0.165148 -0.093055 -0.082774 -0.0977863 0 0 -0.483581 0 0 
19 1 19 0.0199852 0.739976 0 0 -0.188978 -0.102072 -0.0933125 -0.104416 0 0 -0.37743 0 0 
20 1 20 0.0199862 0.779975 0 0 -0.186568 -0.0826269 -0.0862995 -0.105607 0 0 -0.141531 0 0 
21 1 21 0.0199848 0.819978 0 0 -0.208109 -0.0754966 -0.0909224 -0.103666 0 0 0.243527 0 0 
22 1 22 0.0199872 0.85998 0 0 -0.176432 -0.0714237 -0.0794522 -0.0658796 0 0 -0.677147 0 0 
23 1 23 0.0199906 0.899985 0 0 -0.120744 -0.0058137 -0.0405507 -0.0722972 0 0 0.792221 0 0 
24 1 24 0.0199909 0.939991 0 0 -0.124409 -0.0388272 -0.0523167 -0.0247575 0 0 0.123088 0 0 
25 1 25 0.0200033 0.979994 0 0 0.0890995 0.0270848 0.0272463 -0.00190077 0 0 -0.294214 0 0 
26 1 26 0.0600092 0.0200053 0 0 0.0761605 0.100909 0.0567123 0.040105 0 0 -0.597744 0 0 
27 1 27 0.0600269 0.0600098 0 0 0.12203 0.0491134 0.0548168 0.0334604 0 0 -0.69945 0 0 
28 1 28 0.0600399 0.100006 0 0 0.189348 0.042316 0.0741876 0.0380059 0 0 -0.130221 0 0 
29 1 29 0.0600488 0.139996 0 0 0.218833 0.0286594 0.0792552 0.0204067 0 0 -0.123749 0 0 
30 1 30 0.0600471 0.179985 0 0 0.22087 0.0455302 0.0853029 -0.00568056 0 0 -0.0860161 0 0 
31 1 31 0.0600422 0.219977 0 0 0.199247 0.0584556 0.0825198 -0.0105315 0 0 -0.268563 0 0 
32 1 32 0.0600329 0.259973 0 0 0.152513 0.0554233 0.0665941 -0.031499 0 0 -0.088869 0 0 
33 1 33 0.060024 0.299973 0 0 0.116415 0.0692335 0.0594612 -0.0255849 0 0 -0.198421 0 0 
34 1 34 0.0600144 0.339974 0 0 0.0702058 0.0442936 0.0366844 -0.0406485 0 0 -0.0302913 0 0 
35 1 35 0.0600067 0.379976 0 0 0.0335448 0.0159388 0.0158644 -0.0279903 0 0 -0.374074 0 0 
36 1 36 0.0599984 0.419975 0 0 0.00234384 0.00189153 0.00137028 -0.0491665 0 0 -0.070406 0 0 
37 1 37 0.0599894 0.459974 0 0 -0.0541776 -0.0468936 -0.0323802 -0.0377277 0 0 -0.362732 0 0 
38 1 38 0.0599808 0.499972 0 0 -0.0903401 -0.0473857 -0.0441319 -0.0542868 0 0 0.387172 0 0 
39 1 39 0.0599758 0.539971 0 0 -0.126134 -0.0673114 -0.0620003 -0.0293526 0 0 0.572036 0 0 
40 1 40 0.0599771 0.579967 0 0 -0.143471 -0.107717 -0.0805218 -0.0396154 0 0 1.55077 0 0 
41 1 41 0.0599785 0.61996 0 0 -0.13684 -0.109552 -0.0789838 -0.0419519 0 0 2.03562 0 0 
42 1 42 0.0599803 0.659951 0 0 -0.151732 -0.152563 -0.0975619 -0.0519247 0 0 1.86913 0 0 
43 1 43 0.0599779 0.69994 0 0 -0.148709 -0.119271 -0.0859104 -0.0813154 0 0 2.49949 0 0 
44 1 44 0.059971 0.739933 0 0 -0.176363 -0.121386 -0.0954626 -0.0864078 0 0 1.50951 0 0 
45 1 45 0.0599664 0.77993 0 0 -0.190764 -0.0871304 -0.089092 -0.0912786 0 0 1.26992 0 0 
46 1 46 0.0599612 0.819933 0 0 -0.189064 -0.0547196 -0.0781461 -0.106072 0 0 1.33526 0 0 
47 1 47 0.0599633 0.859939 0 0 -0.197836 -0.0607265 -0.0828902 -0.0585657 0 0 -0.16015 0 0 
48 1 48 0.0599704 0.899947 0 0 -0.153158 0.00390761 -0.0478236 -0.108983 0 0 2.07895 0 0 
49 1 49 0.0599755 0.939956 0 0 -0.102043 -0.0263525 -0.0411368 -0.0708104 0 0 0.954944 0 0 
50 1 50 0.0600076 0.979958 0 0 0.00813576 0.0168127 0.00800324 -0.0302716 0 0 0.438609 0 0 
51 1 51 0.100012 0.0200046 0 0 0.0556817 0.0862851 0.0454637 0.053838 0 0 -0.94161 0 0 
52 1 52 0.100039 0.0600115 0 0 0.0988177 0.0678294 0.0533718 0.0587132 0 0 -1.40088 0 0 
53 1 53 0.100063 0.100011 0 0 0.150942 0.0470543 0.0634115 0.0579769 0 0 -0.480586 0 0 
54 1 54 0.100077 0.140004 0 0 0.170964 0.0138114 0.0591815 0.037866 0 0 -0.568492 0 0 
55 1 55 0.100076 0.179993 0 0 0.180983 0.0194791 0.0642012 0.0112279 0 0 -0.281781 0 0 
56 1 56 0.100068 0.219984 0 0 0.174647 0.0342636 0.0669063 0.00816875 0 0 -0.66376 0 0 
57 1 57 0.100053 0.259976 0 0 0.143731 0.0248063 0.0539826 -0.0203545 0 0 -0.240103 0 0 
58 1 58 0.100038 0.299973 0 0 0.12611 0.0548529 0.0579589 -0.0124663 0 0 -0.438007 0 0 
59 1 59 0.100023 0.339971 0 0 0.0811844 0.023302 0.0334749 -0.0378717 0 0 -0.286451 0 0 
60 1 60 0.100011 0.37997 0 0 0.047531 0.0110085 0.0187623 -0.0221889 0 0 -0.942863 0 0 
61 1 61 0.0999992 0.419967 0 0 0.0151911 -0.00652693 0.00278613 -0.0527382 0 0 -0.909419 0 0 
62 1 62 0.0999842 0.459965 0 0 -0.0350027 -0.0384145 -0.0235193 -0.0409125 0 0 -1.07611 0 0 
63 1 63 0.09997 0.499961 0 0 -0.0701103 -0.0543816 -0.0398919 -0.0561451 0 0 -0.625518 0 0 
64 1 64 0.0999591 0.539958 0 0 -0.0949412 -0.0625997 -0.0504871 -0.0311828 0 0 -0.458884 0 0 
65 1 65 0.0999581 0.579951 0 0 -0.1191 -0.120931 -0.0769427 -0.0270057 0 0 -0.553269 0 0 
66 1 66 0.0999596 0.619941 0 0 -0.0882651 -0.103485 -0.0614561 -0.0315473 0 0 -0.158039 0 0 
67 1 67 0.0999609 0.659928 0 0 -0.114306 -0.158378 -0.0874178 -0.0390792 0 0 -0.700513 0 0 
68 1 68 0.0999572 0.699913 0 0 -0.110794 -0.124187 -0.0753232 -0.0671714 0 0 0.350061 0 0 
69 1 69 0.0999485 0.739902 0 0 -0.14202 -0.135596 -0.0890033 -0.0710606 0 0 0.183211 0 0 
70 1 70 0.0999412 0.779895 0 0 -0.148963 -0.0863147 -0.0754209 -0.0801091 0 0 0.410376 0 0 
71 1 71 0.099935 0.819893 0 0 -0.15898 -0.0842744 -0.0779781 -0.0901665 0 0 0.295694 0 0 
72 1 72 0.0999377 0.859894 0 0 -0.151527 -0.0489471 -0.0642585 -0.0698966 0 0 -0.527364 0 0 
73 1 73 0.0999467 0.899898 0 0 -0.137682 -0.0433307 -0.0580108 -0.106598 0 0 1.45942 0 0 
74 1 74 0.0999621 0.939898 0 0 -0.0992494 -0.061233 -0.05142 -0.0638794 0 0 1.15924 0 0 
75 1 75 0.1 0.9799 0 0 -0.0983808 -0.00693937 -0.0337365 -0.0285921 0 0 1.62924 0 0 
76 1 76 0.140014 0.0200049 0 0 0.0388914 0.0773251 0.0372212 0.0622757 0 0 -0.561015 0 0 
77 1 77 0.140047 0.0600129 0 0 0.0568335 0.0686223 0.0401848 0.0788261 0 0 -0.959407 0 0 
78 1 78 0.14008 0.100016 0 0 0.090557 0.0452043 0.0434823 0.0713719 0 0 -0.172762 0 0 
79 1 79 0.1401 0.140013 0 0 0.118192 0.0184909 0.04378 0.0414849 0 0 -0.391347 0 0 
80 1 80 0.140102 0.180006 0 0 0.138337 0.00752123 0.0467191 0.0104752 0 0 -0.308193 0 0 
81 1 81 0.140092 0.219997 0 0 0.139397 0.0106781 0.048071 0.000161714 0 0 -0.751359 0 0 
82 1 82 0.140075 0.259987 0 0 0.118189 -0.00947871 0.034827 -0.0236244 0 0 -0.19941 0 0 
83 1 83 0.140055 0.299979 0 0 0.110095 0.0138217 0.0396958 -0.0201935 0 0 -0.216647 0 0 
84 1 84 0.140037 0.339972 0 0 0.0774892 -0.0106652 0.0214143 -0.0400711 0 0 -0.350159 0 0 
85 1 85 0.14002 0.379966 0 0 0.0531268 -0.00483089 0.0154823 -0.0307806 0 0 -1.12008 0 0 
86 1 86 0.140004 0.419961 0 0 0.0223398 -0.0159046 0.00207338 -0.0521581 0 0 -1.47906 0 0 
87 1 87 0.139985 0.459957 0 0 -0.00848804 -0.0302695 -0.01241 -0.0530496 0 0 -1.22917 0 0 
88 1 88 0.139967 0.499952 0 0 -0.0423749 -0.054861 -0.0311541 -0.0533416 0 0 -0.861085 0 0 
89 1 89 0.139956 0.539946 0 0 -0.0539746 -0.0690626 -0.0394242 -0.0356798 0 0 0.423027 0 0 
90 1 90 0.139956 0.579937 0 0 -0.0952931 -0.117284 -0.0681378 -0.0211388 0 0 1.25237 0 0 
91 1 91 0.139962 0.619925 0 0 -0.0966647 -0.122357 -0.0702059 -0.0196933 0 0 2.03278 0 0 
92 1 92 0.139964 0.65991 0 0 -0.123346 -0.166616 -0.0929646 -0.0381028 0 0 2.45576 0 0 
93 1 93 0.139957 0.699894 0 0 -0.122528 -0.137853 -0.0834743 -0.0571661 0 0 2.63323 0 0 
94 1 94 0.139944 0.739881 0 0 -0.143962 -0.159178 -0.0971942 -0.0666003 0 0 2.26634 0 0 
95 1 95 0.13993 0.77987 0 0 -0.141912 -0.111079 -0.081104 -0.067487 0 0 1.68943 0 0 
96 1 96 0.139921 0.819862 0 0 -0.145139 -0.130694 -0.0884305 -0.065113 0 0 0.901845 0 0 
97 1 97 0.139922 0.859854 0 0 -0.131312 -0.0840944 -0.0690445 -0.0569946 0 0 0.638391 0 0 
98 1 98 0.139932 0.89985 0 0 -0.123889 -0.0911027 -0.0689091 -0.0672674 0 0 1.72735 0 0 
99 1 99 0.13995 0.939846 0 0 -0.123655 -0.0728766 -0.0629913 -0.0334768 0 0 1.70941 0 0 
100 1 100 0.139978 0.979851 0 0 -0.192775 -0.0151596 -0.0666462 -0.0305481 0 0 2.13926 0 0 
101 1 101 0.180014 0.0200049 0 0 0.0305123 0.0721209 0.032882 0.0594104 0 0 -0.591202 0 0 
102 1 102 0.180048 0.0600128 0 0 0.0344542 0.0641891 0.0316032 0.0832036 0 0 -1.1415 0 0 
103 1 103 0.180087 0.100019 0 0 0.0550276 0.0527341 0.0345171 0.0780528 0 0 -0.663168 0 0 
104 1 104 0.180113 0.14002 0 0 0.0659554 0.0176742 0.0267891 0.0423724 0 0 -0.632111 0 0 
105 1 105 0.180119 0.180016 0 0 0.087277 0.00249545 0.0287574 0.0108533 0 0 -0.549749 0 0 
106 1 106 0.18011 0.220008 0 0 0.0939627 -0.0192977 0.0239228 -0.010834 0 0 -0.875143 0 0 
107 1 107 0.180092 0.259997 0 0 0.0997745 -0.0232756 0.0245112 -0.0275564 0 0 -0.764665 0 0 
108 1 108 0.180072 0.299985 0 0 0.0919975 -0.0376844 0.0174056 -0.0332605 0 0 -0.779357 0 0 
109 1 109 0.18005 0.339973 0 0 0.0813681 -0.0290122 0.0167806 -0.0470374 0 0 -1.07774 0 0 
110 1 110 0.180029 0.379963 0 0 0.0569085 -0.0305658 0.00845109 -0.047474 0 0 -1.88817 0 0 
111 1 111 0.180008 0.419955 0 0 0.0267413 -0.0241197 0.000853085 -0.0640006 0 0 -2.43791 0 0 
112 1 112 0.179985 0.459949 0 0 0.000852948 -0.0376148 -0.0117685 -0.068165 0 0 -2.40133 0 0 
113 1 113 0.179964 0.499943 0 0 -0.0184315 -0.051788 -0.022493 -0.0636431 0 0 -1.95104 0 0 
114 1 114 0.179951 0.539934 0 0 -0.027575 -0.0778361 -0.0337734 -0.0363616 0 0 -1.32907 0 0 
115 1 115 0.179948 0.579923 0 0 -0.0309796 -0.0908796 -0.0390486 -0.0295081 0 0 -0.556119 0 0 
116 1 116 0.17995 0.619911 0 0 -0.040985 -0.0946093 -0.043455 -0.0110479 0 0 -0.976492 0 0 
117 1 117 0.179951 0.659897 0 0 -0.0581541 -0.125204 -0.05877 -0.0347076 0 0 -0.36171 0 0 
118 1 118 0.179943 0.699883 0 0 -0.0561655 -0.103707 -0.051238 -0.0383298 0 0 0.129347 0 0 
119 1 119 0.17993 0.739868 0 0 -0.0851644 -0.14112 -0.0725352 -0.054529 0 0 0.605162 0 0 
120 1 120 0.179915 0.779855 0 0 -0.0878542 -0.107192 -0.0625152 -0.0469068 0 0 0.55592 0 0 
121 1 121 0.179908 0.819842 0 0 -0.102088 -0.139583 -0.0774694 -0.0254473 0 0 -0.440109 0 0 
122 1 122 0.17991 0.85983 0 0 -0.0912791 -0.100731 -0.0615393 -0.0273097 0 0 0.512853 0 0 
123 1 123 0.179919 0.89982 0 0 -0.116942 -0.12165 -0.0764823 -0.00362756 0 0 0.827438 0 0 
124 1 124 0.179934 0.939814 0 0 -0.137377 -0.0662458 -0.0652728 -0.0111283 0 0 1.97062 0 0 
125 1 125 0.179945 0.979821 0 0 -0.233753 -0.0328231 -0.0854649 -0.027706 0 0 2.70118 0 0 
126 1 126 0.220013 0.0200035 0 0 0.00923525 0.0493245 0.0187657 0.0520675 0 0 -0.36502 0 0 
127 1 127 0.220048 0.060011 0 0 -0.00401836 0.0467417 0.0136975 0.084008 0 0 -0.723506 0 0 
128 1 128 0.220089 0.100018 0 0 0.00792544 0.0465208 0.0174482 0.079198 0 0 -0.607677 0 0 
129 1 129 0.22012 0.140023 0 0 0.0212137 0.018933 0.0128633 0.0429907 0 0 -0.759419 0 0 
130 1 130 0.22013 0.180021 0 0 0.0458862 -0.00144996 0.0142364 0.0116025 0 0 -0.818914 0 0 
131 1 131 0.220126 0.220014 0 0 0.0596123 -0.0398544 0.00633411 -0.0172 0 0 -0.84432 0 0 
132 1 132 0.22011 0.260002 0 0 0.076515 -0.0455846 0.00991524 -0.0372071 0 0 -0.827133 0 0 
133 1 133 0.22009 0.299987 0 0 0.0702229 -0.0787843 -0.00273631 -0.0480568 0 0 -0.803529 0 0 
134 1 134 0.220067 0.33997 0 0 0.0699969 -0.0614149 0.00275662 -0.0658743 0 0 -1.14562 0 0 
135 1 135 0.220042 0.379957 0 0 0.0506738 -0.047484 0.00103083 -0.0686663 0 0 -2.2203 0 0 
136 1 136 0.220016 0.419946 0 0 0.0202182 -0.0525953 -0.0103649 -0.0828525 0 0 -2.74481 0 0 
137 1 137 0.21999 0.459938 0 0 0.0231165 -0.0209474 0.000702585 -0.0752128 0 0 -3.02607 0 0 
138 1 138 0.21997 0.499931 0 0 0.0152503 -0.056096 -0.0130812 -0.0687014 0 0 -2.23938 0 0 
139 1 139 0.219958 0.53992 0 0 0.00763614 -0.059836 -0.0167206 -0.0405549 0 0 -1.29582 0 0 
140 1 140 0.219956 0.579909 0 0 -0.0257107 -0.0869705 -0.0361093 -0.0332691 0 0 0.411147 0 0 
141 1 141 0.219958 0.619899 0 0 -0.0527587 -0.0858772 -0.0444334 -0.0120687 0 0 1.30027 0 0 
142 1 142 0.219958 0.659889 0 0 -0.093155 -0.10364 -0.0630813 -0.0304047 0 0 2.46241 0 0 
143 1 143 0.219947 0.699879 0 0 -0.103755 -0.107955 -0.0678621 -0.0193962 0 0 2.45589 0 0 
144 1 144 0.219932 0.739868 0 0 -0.105226 -0.134194 -0.0767484 -0.025309 0 0 2.62928 0 0 
145 1 145 0.219914 0.779854 0 0 -0.0943011 -0.123878 -0.0699326 -0.0138619 0 0 2.31786 0 0 
146 1 146 0.219906 0.819841 0 0 -0.104686 -0.141505 -0.0789184 0.0198782 0 0 0.917199 0 0 
147 1 147 0.219905 0.859827 0 0 -0.103182 -0.121303 -0.0719585 0.0129627 0 0 2.02407 0 0 
148 1 148 0.21991 0.899816 0 0 -0.116621 -0.126845 -0.0780484 0.0508711 0 0 1.22614 0 0 
149 1 149 0.219918 0.93981 0 0 -0.139228 -0.0639369 -0.0651267 0.0178534 0 0 2.34824 0 0 
150 1 150 0.21991 0.979816 0 0 -0.228713 -0.037725 -0.0854202 -0.00390049 0 0 2.10034 0 0 
151 1 151 0.260011 0.020002 0 0 0.00971354 0.0315232 0.0132139 0.0451453 0 0 -0.289448 0 0 
152 1 152 0.260043 0.0600079 0 0 0.00397993 0.0459425 0.0160038 0.0804104 0 0 -0.977429 0 0 
153 1 153 0.260084 0.100014 0 0 -0.0134603 0.033799 0.00652509 0.07507 0 0 -1.43267 0 0 
154 1 154 0.260117 0.140021 0 0 -0.0100671 0.0253972 0.00491783 0.0414519 0 0 -1.54365 0 0 
155 1 155 0.260134 0.180021 0 0 -0.000187794 -0.0215114 -0.00694796 0.010134 0 0 -1.23305 0 0 
156 1 156 0.260136 0.220014 0 0 0.027925 -0.0533768 -0.00814878 -0.0214803 0 0 -1.0855 0 0 
157 1 157 0.260125 0.26 0 0 0.0518616 -0.0842075 -0.0103562 -0.0474455 0 0 -1.36968 0 0 
158 1 158 0.260107 0.299981 0 0 0.0671874 -0.0912733 -0.00770908 -0.0625024 0 0 -1.54318 0 0 
159 1 159 0.260082 0.339961 0 0 0.0565821 -0.1027 -0.0147698 -0.0863571 0 0 -2.09548 0 0 
160 1 160 0.260053 0.379944 0 0 0.0558108 -0.0471671 0.00277684 -0.0936491 0 0 -3.13099 0 0 
161 1 161 0.260023 0.419933 0 0 0.0207187 -0.0683261 -0.0152487 -0.0987779 0 0 -3.65841 0 0 
162 1 162 0.259996 0.459923 0 0 0.0407021 -0.0110053 0.00951684 -0.0837208 0 0 -3.9715 0 0 
163 1 163 0.259976 0.499916 0 0 0.0295177 -0.0503691 -0.00667869 -0.0704343 0 0 -3.35069 0 0 
164 1 164 0.259963 0.539906 0 0 0.0451876 -0.0448927 9.74769e-05 -0.0444345 0 0 -2.74788 0 0 
165 1 165 0.259956 0.579896 0 0 0.0508201 -0.019968 0.00988726 -0.0392183 0 0 -1.57469 0 0 
166 1 166 0.259951 0.61989 0 0 0.0206112 -0.0357773 -0.00485677 -0.0142382 0 0 -1.62001 0 0 
167 1 167 0.259945 0.659885 0 0 0.0179385 0.00360554 0.0069077 -0.028503 0 0 -0.411214 0 0 
168 1 168 0.259933 0.699883 0 0 -0.015614 -0.0314865 -0.0150841 -0.00855029 0 0 -0.176629 0 0 
169 1 169 0.259921 0.739878 0 0 -0.0314343 -0.0535087 -0.0272114 -0.0052381 0 0 0.431815 0 0 
170 1 170 0.259906 0.779869 0 0 -0.0382116 -0.0882083 -0.0405074 0.0156178 0 0 1.07107 0 0 
171 1 171 0.2599 0.819857 0 0 -0.0476229 -0.10402 -0.0485942 0.0504591 0 0 0.612805 0 0 
172 1 172 0.259898 0.859845 0 0 -0.063986 -0.098525 -0.0520834 0.0443125 0 0 1.93106 0 0 
173 1 173 0.259901 0.899834 0 0 -0.0933261 -0.110982 -0.0654885 0.0863502 0 0 0.683555 0 0 
174 1 174 0.259901 0.939829 0 0 -0.122383 -0.0441304 -0.0533729 0.0254909 0 0 2.43245 0 0 
175 1 175 0.259879 0.979835 0 0 -0.195384 -0.0411551 -0.0758269 0.00684905 0 0 1.61698 0 0 
176 1 176 0.300011 0.0200007 0 0 0.00038331 0.00833583 0.00279591 0.0423381 0 0 0.0848764 0 0 
177 1 177 0.300041 0.0600034 0 0 -0.0132469 0.019607 0.00204449 0.0691825 0 0 -0.477953 0 0 
178 1 178 0.30008 0.100007 0 0 -0.0433312 0.00395972 -0.0126076 0.0630223 0 0 -1.5143 0 0 
179 1 179 0.300114 0.140012 0 0 -0.0285735 0.0185994 -0.00318688 0.0362967 0 0 -2.04056 0 0 
180 1 180 0.300136 0.180013 0 0 -0.0145304 -0.0308292 -0.0145267 0.00587174 0 0 -1.81954 0 0 
181 1 181 0.300145 0.220005 0 0 0.0172465 -0.062829 -0.0145962 -0.0253834 0 0 -1.52433 0 0 
182 1 182 0.30014 0.25999 0 0 0.0407925 -0.103523 -0.0200912 -0.0527181 0 0 -1.73061 0 0 
183 1 183 0.300125 0.299969 0 0 0.0607081 -0.103491 -0.0136986 -0.073546 0 0 -1.89555 0 0 
184 1 184 0.3001 0.339947 0 0 0.048349 -0.117947 -0.0222925 -0.098634 0 0 -2.44423 0 0 
185 1 185 0.300067 0.379928 0 0 0.0549579 -0.0591828 -0.00134383 -0.106707 0 0 -3.09522 0 0 
186 1 186 0.300033 0.419917 0 0 0.0349959 -0.0528488 -0.00571318 -0.105769 0 0 -3.61996 0 0 
187 1 187 0.300005 0.459907 0 0 0.0464291 -0.0218563 0.00787408 -0.0804108 0 0 -4.24759 0 0 
188 1 188 0.299987 0.4999 0 0 0.0615756 -0.0143667 0.0151236 -0.0642792 0 0 -3.39075 0 0 
189 1 189 0.299977 0.539893 0 0 0.0531099 -0.0263049 0.00858945 -0.036045 0 0 -2.58979 0 0 
190 1 190 0.299971 0.579887 0 0 0.0418324 0.00338017 0.0144884 -0.0362285 0 0 -0.390901 0 0 
191 1 191 0.299962 0.619886 0 0 -0.0206829 -0.0110988 -0.0101783 -0.0181178 0 0 0.805227 0 0 
192 1 192 0.299952 0.659888 0 0 -0.0597587 0.00666985 -0.0170038 -0.0178389 0 0 2.02042 0 0 
193 1 193 0.299938 0.699893 0 0 -0.0663784 -0.0102244 -0.0245387 0.00494794 0 0 2.35382 0 0 
194 1 194 0.299924 0.739895 0 0 -0.0627576 -0.0268158 -0.028696 0.00554963 0 0 2.53098 0 0 
195 1 195 0.299909 0.779892 0 0 -0.0662507 -0.066395 -0.042505 0.0296868 0 0 2.36784 0 0 
196 1 196 0.299902 0.819885 0 0 -0.060416 -0.0871438 -0.047286 0.0606286 0 0 2.17904 0 0 
197 1 197 0.299897 0.859875 0 0 -0.0610541 -0.0840251 -0.0464933 0.0570647 0 0 3.10247 0 0 
198 1 198 0.299895 0.899867 0 0 -0.0848365 -0.0894171 -0.0558479 0.0956901 0 0 0.934941 0 0 
199 1 199 0.299887 0.939864 0 0 -0.0930759 -0.0296697 -0.0393372 0.0251042 0 0 2.11202 0 0 
200 1 200 0.299856 0.979868 0 0 -0.113354 -0.0240275 -0.0440248 0.0152358 0 0 0.634449 0 0 
201 1 201 0.340011 0.019999 0 0 0.000738194 -0.0128372 -0.00387404 0.0424497 0 0 -0.09369 0 0 
202 1 202 0.340038 0.0599973 0 0 -0.00357616 -0.00916909 -0.00407815 0.0560896 0 0 -1.00882 0 0 
203 1 203 0.340073 0.099997 0 0 -0.0269007 -0.00603217 -0.0105459 0.0519915 0 0 -2.41891 0 0 
204 1 204 0.340107 0.139999 0 0 -0.0305421 -0.00260155 -0.0106122 0.0370336 0 0 -3.12108 0 0 
205 1 205 0.340135 0.179997 0 0 -0.019203 -0.038762 -0.0185672 0.0100829 0 0 -2.73592 0 0 
206 1 206 0.340152 0.219989 0 0 0.0165777 -0.0686612 -0.0166794 -0.0184393 0 0 -2.16436 0 0 
207 1 207 0.340154 0.259973 0 0 0.0464509 -0.100516 -0.0173135 -0.0505254 0 0 -2.35435 0 0 
208 1 208 0.340142 0.299952 0 0 0.067164 -0.0990695 -0.0102113 -0.077176 0 0 -2.72334 0 0 
209 1 209 0.340116 0.339932 0 0 0.0635923 -0.101912 -0.0122666 -0.103492 0 0 -3.11217 0 0 
210 1 210 0.34008 0.379913 0 0 0.0642529 -0.0568573 0.00238159 -0.111952 0 0 -3.54954 0 0 
211 1 211 0.340043 0.419902 0 0 0.0511313 -0.0411914 0.00319495 -0.104742 0 0 -4.16077 0 0 
212 1 212 0.340013 0.459893 0 0 0.0577359 -0.0100171 0.0152924 -0.0713536 0 0 -4.6337 0 0 
213 1 213 0.339996 0.499887 0 0 0.0653012 -0.00369071 0.0197393 -0.0491971 0 0 -3.89328 0 0 
214 1 214 0.339984 0.539884 0 0 0.0799304 0.0257628 0.0338584 -0.0342316 0 0 -3.59332 0 0 
215 1 215 0.339971 0.579883 0 0 0.0707819 0.0393643 0.0352855 -0.034448 0 0 -2.76673 0 0 
216 1 216 0.339955 0.619887 0 0 0.0724715 0.0763519 0.0476692 -0.0258301 0 0 -2.15583 0 0 
217 1 217 0.339937 0.659896 0 0 0.0590413 0.104175 0.0522797 -0.0228492 0 0 -1.20247 0 0 
218 1 218 0.339922 0.699907 0 0 0.0167266 0.056612 0.0235018 0.0118231 0 0 -1.31062 0 0 
219 1 219 0.339913 0.739914 0 0 0.0308994 0.0597096 0.0290327 0.0112857 0 0 -0.0020946 0 0 
220 1 220 0.339902 0.779917 0 0 0.0161803 -0.00323709 0.00415451 0.0354515 0 0 0.951316 0 0 
221 1 221 0.339898 0.819914 0 0 0.00671872 -0.0236443 -0.00541352 0.0544035 0 0 1.48547 0 0 
222 1 222 0.339894 0.859909 0 0 -0.00449257 -0.0366259 -0.0131691 0.0495116 0 0 2.58195 0 0 
223 1 223 0.339889 0.899904 0 0 -0.0365946 -0.0399366 -0.0245174 0.078534 0 0 0.628186 0 0 
224 1 224 0.339875 0.939904 0 0 -0.0617275 -0.0104208 -0.0231152 0.0147919 0 0 1.57949 0 0 
225 1 225 0.339843 0.979906 0 0 -0.0690399 -0.0237949 -0.0297424 0.0227137 0 0 0.00702395 0 0 
226 1 226 0.380013 0.0199969 0 0 -0.00803878 -0.0409432 -0.0156911 0.0487187 0 0 0.243072 0 0 
227 1 227 0.380041 0.0599911 0 0 -0.00798191 -0.0443809 -0.0167723 0.0501411 0 0 -0.400428 0 0 
228 1 228 0.380071 0.0999861 0 0 -0.0206282 -0.0246903 -0.0145153 0.0453705 0 0 -2.33555 0 0 
229 1 229 0.380105 0.139985 0 0 -0.0212235 -0.0196336 -0.0130849 0.0444226 0 0 -3.59688 0 0 
230 1 230 0.380137 0.17998 0 0 5.29237e-05 -0.0408926 -0.0130807 0.0288616 0 0 -3.47539 0 0 
231 1 231 0.380161 0.219972 0 0 0.0379487 -0.0495773 -0.00371917 0.0050659 0 0 -3.01994 0 0 
232 1 232 0.38017 0.259957 0 0 0.0487773 -0.098192 -0.0158268 -0.0289818 0 0 -3.03844 0 0 
233 1 233 0.380161 0.299938 0 0 0.0784495 -0.0698357 0.0027691 -0.060501 0 0 -3.21068 0 0 
234 1 234 0.380135 0.33992 0 0 0.0695339 -0.0871381 -0.00563031 -0.0878037 0 0 -3.39081 0 0 
235 1 235 0.380096 0.379903 0 0 0.0749047 -0.0432295 0.0101599 -0.102974 0 0 -3.38926 0 0 
236 1 236 0.380055 0.419892 0 0 0.0616258 -0.0347666 0.00861619 -0.0887357 0 0 -3.87322 0 0 
237 1 237 0.380025 0.459884 0 0 0.0701774 0.0023795 0.0232502 -0.0568189 0 0 -4.07974 0 0 
238 1 238 0.380008 0.49988 0 0 0.0568976 0.00533154 0.0199407 -0.0350597 0 0 -3.48774 0 0 
239 1 239 0.379996 0.539879 0 0 0.0460547 0.0312864 0.0247817 -0.0261724 0 0 -3.05324 0 0 
240 1 240 0.379982 0.579883 0 0 0.0155452 0.0508608 0.0212796 -0.0370655 0 0 -1.29762 0 0 
241 1 241 0.379962 0.619892 0 0 -0.0408129 0.0407737 -7.94251e-06 -0.0272766 0 0 -0.224582 0 0 
242 1 242 0.379942 0.659905 0 0 -0.0372079 0.0891569 0.0166487 -0.028379 0 0 1.12444 0 0 
243 1 243 0.379925 0.69992 0 0 -0.0600528 0.0399757 -0.0064257 0.00445381 0 0 0.841853 0 0 
244 1 244 0.379915 0.739931 0 0 -0.0386451 0.0541704 0.00498144 0.0110259 0 0 0.957905 0 0 
245 1 245 0.379907 0.779939 0 0 -0.0168269 0.0104146 -0.00204764 0.030094 0 0 1.60613 0 0 
246 1 246 0.379903 0.819939 0 0 -0.00695872 -0.011276 -0.00583429 0.0424149 0 0 2.28546 0 0 
247 1 247 0.379897 0.859938 0 0 -0.00734114 -0.0101453 -0.00559735 0.035972 0 0 2.74561 0 0 
248 1 248 0.379888 0.899938 0 0 -0.0215841 -0.0043558 -0.00830494 0.0493206 0 0 0.781476 0 0 
249 1 249 0.379868 0.93994 0 0 -0.0267151 0.0141771 -0.00401122 -0.00115849 0 0 1.03235 0 0 
250 1 250 0.379838 0.979943 0 0 -0.00593176 0.000623474 -0.00169151 0.0218185 0 0 -0.645912 0 0 
251 1 251 0.420015 0.0199951 0 0 -0.00546359 -0.0596269 -0.0208531 0.0615141 0 0 0.129855 0 0 
252 1 252 0.420044 0.059986 0 0 0.0130566 -0.0584715 -0.014544 0.0494092 0 0 -0.855792 0 0 
253 1 253 0.420071 0.099977 0 0 0.00306022 -0.0382535 -0.0112694 0.0424759 0 0 -3.14116 0 0 
254 1 254 0.420104 0.139972 0 0 0.00351765 -0.0210978 -0.00562604 0.0576908 0 0 -4.25502 0 0 
255 1 255 0.420141 0.179967 0 0 0.0172225 -0.0396072 -0.00716732 0.0516732 0 0 -4.23447 0 0 
256 1 256 0.420171 0.219958 0 0 0.056745 -0.0246552 0.0102859 0.0284625 0 0 -3.89564 0 0 
257 1 257 0.420185 0.259946 0 0 0.0645622 -0.0751779 -0.00339534 -0.00532127 0 0 -3.60881 0 0 
258 1 258 0.420179 0.299931 0 0 0.100896 -0.0341868 0.0213767 -0.043047 0 0 -3.76184 0 0 
259 1 259 0.420152 0.339916 0 0 0.0871889 -0.0590208 0.00903342 -0.0756152 0 0 -3.92543 0 0 
260 1 260 0.420112 0.379902 0 0 0.0887723 -0.0371794 0.0165387 -0.0936254 0 0 -3.7122 0 0 
261 1 261 0.420068 0.419891 0 0 0.0840892 -0.0211832 0.0201608 -0.0823134 0 0 -4.00905 0 0 
262 1 262 0.420036 0.459882 0 0 0.0665175 -0.0100078 0.0181093 -0.0546429 0 0 -4.28793 0 0 
263 1 263 0.420014 0.499878 0 0 0.0574895 0.0201799 0.0248856 -0.0371486 0 0 -3.8818 0 0 
264 1 264 0.419997 0.53988 0 0 0.0463846 0.047244 0.0299984 -0.0314491 0 0 -4.08875 0 0 
265 1 265 0.419975 0.579887 0 0 0.0554143 0.0925706 0.0474043 -0.0436451 0 0 -3.68662 0 0 
266 1 266 0.419949 0.619899 0 0 0.0559413 0.102445 0.050731 -0.0407883 0 0 -3.62649 0 0 
267 1 267 0.419924 0.659913 0 0 0.0611001 0.133654 0.0623731 -0.0325839 0 0 -3.35753 0 0 
268 1 268 0.419909 0.699929 0 0 0.0561038 0.112624 0.054043 -0.005625 0 0 -3.03123 0 0 
269 1 269 0.419903 0.739942 0 0 0.0609448 0.107581 0.053978 0.00407973 0 0 -1.70652 0 0 
270 1 270 0.419902 0.779952 0 0 0.0548991 0.0692259 0.0397624 0.0231659 0 0 -0.509199 0 0 
271 1 271 0.419903 0.819957 0 0 0.0576753 0.0484584 0.0340023 0.0207961 0 0 1.26107 0 0 
272 1 272 0.419897 0.85996 0 0 0.0434297 0.0386924 0.0263101 0.0182969 0 0 1.99006 0 0 
273 1 273 0.419885 0.899964 0 0 0.0123649 0.0389999 0.0164597 0.0192566 0 0 0.385907 0 0 
274 1 274 0.419863 0.93997 0 0 -0.00710943 0.0302845 0.00742911 -0.0141022 0 0 0.277847 0 0 
275 1 275 0.419838 0.979973 0 0 0.0081025 0.0122482 0.00652827 0.0200531 0 0 -1.18632 0 0 
276 1 276 0.460019 0.0199942 0 0 -0.0219523 -0.0768888 -0.0316732 0.0763384 0 0 0.388965 0 0 
277 1 277 0.460051 0.0599837 0 0 -0.00718459 -0.0770106 -0.0269733 0.0560418 0 0 -0.32552 0 0 
278 1 278 0.460076 0.099973 0 0 0.00219097 -0.0535669 -0.0164556 0.0509829 0 0 -2.54006 0 0 
279 1 279 0.460109 0.139966 0 0 0.0223257 -0.0206802 0.000533901 0.0803128 0 0 -3.80346 0 0 
280 1 280 0.460148 0.17996 0 0 0.0337814 -0.0334119 0.000124961 0.0793056 0 0 -4.45099 0 0 
281 1 281 0.460183 0.219952 0 0 0.0699968 -0.00619037 0.0204476 0.0573222 0 0 -4.40237 0 0 
282 1 282 0.460201 0.259943 0 0 0.0723062 -0.0426155 0.00952008 0.0204819 0 0 -3.97786 0 0 
283 1 283 0.460197 0.299932 0 0 0.0918255 -0.0220717 0.0223531 -0.0226259 0 0 -4.20517 0 0 
284 1 284 0.460171 0.33992 0 0 0.0929554 -0.0381074 0.0175792 -0.0594103 0 0 -4.12161 0 0 
285 1 285 0.46013 0.379907 0 0 0.0987123 -0.0346125 0.0205433 -0.080761 0 0 -3.75891 0 0 
286 1 286 0.460086 0.419894 0 0 0.0948082 -0.0307877 0.0205169 -0.0743084 0 0 -3.91771 0 0 
287 1 287 0.460049 0.459884 0 0 0.073264 -0.0171463 0.0179814 -0.0589815 0 0 -3.83219 0 0 
288 1 288 0.460023 0.499879 0 0 0.0426003 0.0147874 0.0183869 -0.0390934 0 0 -3.6394 0 0 
289 1 289 0.460002 0.539882 0 0 0.00639905 0.039798 0.0148064 -0.0425916 0 0 -3.38361 0 0 
290 1 290 0.459978 0.579891 0 0 -0.0336312 0.0597494 0.00837707 -0.0515125 0 0 -2.59295 0 0 
291 1 291 0.459952 0.619903 0 0 -0.0640784 0.0515714 -0.00400036 -0.0487759 0 0 -1.78678 0 0 
292 1 292 0.459928 0.659918 0 0 -0.0583002 0.0695175 0.00360103 -0.041201 0 0 -0.893497 0 0 
293 1 293 0.459912 0.699933 0 0 -0.0566906 0.0591005 0.000778918 -0.0113152 0 0 -1.17234 0 0 
294 1 294 0.459907 0.739946 0 0 -0.0206493 0.0757064 0.0176442 -0.00247982 0 0 -0.441683 0 0 
295 1 295 0.459907 0.779958 0 0 0.00702729 0.0618302 0.0220628 0.019528 0 0 0.234744 0 0 
296 1 296 0.459908 0.819967 0 0 0.0201187 0.0587263 0.0252628 0.00783778 0 0 1.48856 0 0 
297 1 297 0.4599 0.859975 0 0 0.0231829 0.0589112 0.0263014 -0.00336796 0 0 1.78918 0 0 
298 1 298 0.459884 0.899983 0 0 0.0117429 0.0581708 0.0224001 -0.00997282 0 0 0.358341 0 0 
299 1 299 0.45986 0.93999 0 0 0.00430743 0.044568 0.0156598 -0.0283156 0 0 -0.153531 0 0 
300 1 300 0.459839 0.979995 0 0 0.0179297 0.0246639 0.0136526 0.0109968 0 0 -1.4832 0 0 
301 1 301 0.500021 0.0199943 0 0 -0.0167528 -0.0721301 -0.0284817 0.0887817 0 0 0.140379 0 0 
302 1 302 0.500055 0.0599848 0 0 0.0115784 -0.0592512 -0.0152685 0.0639922 0 0 -0.749746 0 0 
303 1 303 0.500081 0.0999745 0 0 0.0230582 -0.0477415 -0.0079025 0.0601236 0 0 -2.54788 0 0 
304 1 304 0.500113 0.139967 0 0 0.0340716 -0.019163 0.00478326 0.0926001 0 0 -3.5408 0 0 
305 1 305 0.500155 0.17996 0 0 0.0282981 -0.0356045 -0.0023335 0.0972159 0 0 -4.52703 0 0 
306 1 306 0.500193 0.219954 0 0 0.0599201 0.00116468 0.0195773 0.077873 0 0 -4.74759 0 0 
307 1 307 0.500214 0.259948 0 0 0.0647139 -0.022886 0.0134102 0.036605 0 0 -4.3654 0 0 
308 1 308 0.500212 0.299939 0 0 0.0843559 -0.011139 0.0234641 -0.0104168 0 0 -4.57076 0 0 
309 1 309 0.500188 0.339929 0 0 0.0907332 -0.0309578 0.0191586 -0.0470538 0 0 -4.48889 0 0 
310 1 310 0.500148 0.379917 0 0 0.10404 -0.0348596 0.0221716 -0.0742359 0 0 -4.08338 0 0 
311 1 311 0.500103 0.419902 0 0 0.101598 -0.045585 0.017953 -0.0707322 0 0 -4.08495 0 0 
312 1 312 0.500063 0.459889 0 0 0.0881376 -0.0261736 0.0198539 -0.0669597 0 0 -3.74717 0 0 
313 1 313 0.500028 0.499883 0 0 0.0633652 0.024322 0.0280911 -0.0522748 0 0 -4.02973 0 0 
314 1 314 0.499997 0.539885 0 0 0.0243757 0.0405049 0.0207906 -0.0546318 0 0 -4.70706 0 0 
315 1 315 0.499966 0.579894 0 0 0.0457437 0.100951 0.0469914 -0.0578714 0 0 -5.03663 0 0 
316 1 316 0.499936 0.619906 0 0 0.0648495 0.107953 0.0553473 -0.0513766 0 0 -5.39016 0 0 
317 1 317 0.499911 0.65992 0 0 0.0818829 0.119977 0.0646483 -0.045164 0 0 -5.05912 0 0 
318 1 318 0.499897 0.699933 0 0 0.080208 0.119626 0.0639992 -0.0192727 0 0 -4.62209 0 0 
319 1 319 0.499895 0.739946 0 0 0.0613207 0.110688 0.0550923 -0.00599478 0 0 -2.94299 0 0 
320 1 320 0.4999 0.779959 0 0 0.0510114 0.102425 0.0491455 0.0115011 0 0 -1.55016 0 0 
321 1 321 0.499904 0.819971 0 0 0.0424998 0.0921071 0.0431187 -0.00353342 0 0 0.294379 0 0 
322 1 322 0.499897 0.859982 0 0 0.0266121 0.0813051 0.0345709 -0.0161527 0 0 0.797967 0 0 
323 1 323 0.49988 0.899993 0 0 0.00943823 0.074378 0.0268526 -0.0316187 0 0 -0.0528235 0 0 
324 1 324 0.499856 0.940003 0 0 -0.00546418 0.0472936 0.0134023 -0.0374055 0 0 -0.58483 0 0 
325 1 325 0.499837 0.980009 0 0 -0.00811393 0.0210127 0.00413954 0.00138491 0 0 -1.7821 0 0 
326 1 326 0.540023 0.0199955 0 0 -0.0286912 -0.0650622 -0.0300422 0.0971054 0 0 0.268167 0 0 
327 1 327 0.54006 0.0599882 0 0 -0.0174165 -0.0542874 -0.0229721 0.0714796 0 0 -0.126704 0 0 