# vtk DataFile Version 3.0
Mesquite Mesh
ASCII
DATASET UNSTRUCTURED_GRID
POINTS 168 double
1.19868766 1.03882022e-15 -5
0.9938175673 0.9784146773 -5
0.4185136079 1.796397662 -5
-0.4261812595 2.332661511 -5
-1.409635778 2.518542369 -5
-2.393090297 2.332661511 -5
-3.237785164 1.796397662 -5
-3.813089123 0.9784146773 -5
-4.017959216 -7.303979213e-16 -5
-3.813089123 -0.9784146773 -5
-3.237785164 -1.796397662 -5
-2.393090297 -2.332661511 -5
-1.409635778 -2.518542369 -5
-0.4261812595 -2.332661511 -5
0.4185136079 -1.796397662 -5
0.9938175673 -0.9784146773 -5
-5 -5 -5
5 -5 -5
4 -5 -5
3 -5 -5
2 -5 -5
1 -5 -5
0 -5 -5
-1 -5 -5
-2 -5 -5
-3 -5 -5
-4 -5 -5
-5 5 -5
-5 -4 -5
-5 -3 -5
-5 -2 -5
-5 -1 -5
-5 0 -5
-5 1 -5
-5 2 -5
-5 3 -5
-5 4 -5
5 5 -5
-4 5 -5
-3 5 -5
-2 5 -5
-1 5 -5
0 5 -5
1 5 -5
2 5 -5
3 5 -5
4 5 -5
5 4 -5
5 3 -5
5 2 -5
5 1 -5
5 0 -5
5 -1 -5
5 -2 -5
5 -3 -5
5 -4 -5
2.335582517 -0.1070457403 -5
1.761162741 -0.7513730362 -5
1.960009462 0.2010141951 -5
4.141730454 0.3903490688 -5
3.880045389 0.1232539742 -5
3.614212572 -0.6860644837 -5
0.5869920232 1.77783523 -5
1.772733688 1.476749612 -5
2.470852903 -2.559293675 -5
0.6411686324 -2.537352644 -5
0.2652135475 -3.061475908 -5
2.452302702 -3.100476868 -5
1.042552883 -2.539645662 -5
0.2692307454 -3.084016701 -5
-0.9012326445 -3.200181449 -5
-1.465499837 -2.965594155 -5
-2.196256964 -2.697913291 -5
-1.469173128 -3.514123122 -5
-2.179871304 -2.908842735 -5
-2.406265269 -2.662907453 -5
-2.952512553 -2.16588896 -5
-3.022974952 -2.102665485 -5
-3.877390399 -1.245411811 -5
-3.992416227 -1.348507668 -5
-4.013128212 -0.06960903095 -5
-4.061687206 0.1526327121 -5
-4.039958631 0.6586083158 -5
-3.352441037 -1.809949557 -5
-3.854882236 -1.340437947 -5
-4.266519415 -1.863408958 -5
-4.476175247 -0.4669089329 -5
-4.418448088 -0.493416431 -5
-4.324839183 -0.3906548629 -5
-4.168119743 0.1230544797 -5
-4.294703991 0.3668875464 -5
-4.288088802 0.3774198155 -5
-3.47324965 -1.71474805 -5
-3.875945873 -1.39132042 -5
-4.245386485 -2.023903057 -5
-4.230804395 -2.14276103 -5
-4.610545701 -0.8388592581 -5
-4.485319948 -0.4608402365 -5
-4.449095848 -0.4340748913 -5
-4.28512693 -0.161212766 -5
-4.178805585 0.1377683954 -5
-4.333582005 0.4378523394 -5
-3.946475062 1.025706107 -5
-2.923953253 2.910853716 -5
-3.457245063 1.912293872 -5
-2.238921318 2.49565056 -5
-0.8075264642 2.661447325 -5
-2.178261736 2.9714684 -5
-0.5941511242 2.47974288 -5
2.549921641 2.119784527 -5
2.961961843 4.498632594 -5
2.919353784 4.76837608 -5
1.10847582 4.593695393 -5
0.1213429963 4.80725845 -5
-0.7046516012 4.700657257 -5
-2.514081833 4.099945645 -5
-3.351223761 4.200525588 -5
-3.817991116 4.056071517 -5
-4.782319863 3.879259733 -5
-4.578939157 3.336864718 -5
-4.760548958 1.845904341 -5
-4.98318667 0.6077227512 -5
-4.974033219 -0.3365151535 -5
-4.92460228 -0.9887931849 -5
-4.749422672 -1.271468171 -5
-4.991625565 -2.942515153 -5
-4.921333505 -3.583230713 -5
-3.977648769 -4.268537038 -5
-1.98552091 -4.265618376 -5
-1.880721959 -3.464356131 -5
-1.181992629 -3.988642318 -5
-0.7147609042 -4.078550994 -5
0.7745467033 -3.918571798 -5
3.684481965 -4.545413599 -5
3.73457649 -4.553674711 -5
4.445944391 -3.511495009 -5
3.235362491 -1.619228425 -5
0.7223983982 1.925698373 -5
0.4869392112 2.964466197 -5
-0.1966194936 3.479004043 -5
-2.173933365 2.977223573 -5
-1.943211545 3.360366278 -5
-2.853591617 3.464053246 -5
-4.315492713 2.923540563 -5
-4.37307295 -2.799677907 -5
-3.687283427 -2.890509089 -5
-2.541707658 -2.921632653 -5
-1.710861515 -3.478111942 -5
-1.335001872 -3.62928795 -5
0.7880914075 -3.194454815 -5
1.038818181 -3.117703801 -5
-4.677274014 1.479614272 -5
-4.806152417 0.960865598 -5
-4.806702414 0.9361975026 -5
-4.748570663 -1.267190585 -5
-4.22293665 -2.114349764 -5
-4.612379321 -0.878371117 -5
-4.274240504 0.2238432211 -5
-4.204519855 0.1580261633 -5
-4.337588866 2.271836879 -5
-4.412181656 0.9522563273 -5
-4.355988524 0.4378865731 -5
-4.230593583 -2.144194895 -5
-4.685588845 0.08247437658 -5
-4.825135822 0.4439973385 -5
2.233123533 -2.364700333 -5
-0.2092425798 2.989115718 -5
-3.00655368 3.689460827 -5
CELLS 140 700
4 57 15 0 56
4 65 14 15 57
4 58 56 0 1
4 59 60 56 58
4 61 57 56 60
4 62 58 1 2
4 63 59 58 62
4 49 50 59 63
4 51 60 59 50
4 52 61 60 51
4 66 13 14 65
4 69 66 65 68
4 70 71 66 69
4 12 13 66 71
4 72 11 12 71
4 73 72 71 70
4 74 75 72 73
4 76 11 72 75
4 77 10 11 76
4 78 9 10 77
4 79 80 9 78
4 81 8 9 80
4 82 7 8 81
4 83 77 76 75
4 84 78 77 83
4 85 79 78 84
4 86 87 79 85
4 88 80 79 87
4 89 81 80 88
4 90 82 81 89
4 91 7 82 90
4 92 83 75 74
4 93 84 83 92
4 94 85 84 93
4 95 86 85 94
4 96 97 86 95
4 98 87 86 97
4 99 88 87 98
4 100 89 88 99
4 101 90 89 100
4 102 91 90 101
4 103 104 91 102
4 105 5 6 104
4 106 4 5 105
4 107 105 104 103
4 62 2 3 108
4 109 48 49 63
4 110 47 48 109
4 46 37 47 110
4 111 45 46 110
4 112 44 45 111
4 113 43 44 112
4 114 42 43 113
4 115 41 42 114
4 116 40 41 115
4 117 39 40 116
4 118 38 39 117
4 36 27 38 118
4 119 35 36 118
4 120 34 35 119
4 121 33 34 120
4 122 32 33 121
4 123 31 32 122
4 124 30 31 123
4 125 29 30 124
4 126 28 29 125
4 26 16 28 126
4 127 25 26 126
4 128 24 25 127
4 129 23 24 128
4 130 22 23 129
4 131 21 22 130
4 132 20 21 131
4 133 19 20 132
4 134 18 19 133
4 55 17 18 134
4 135 54 55 134
4 136 53 54 135
4 61 52 53 136
4 63 62 108 137
4 138 111 110 109
4 139 112 111 138
4 140 113 112 139
4 141 114 113 140
4 142 115 114 141
4 119 118 117 143
4 144 127 126 125
4 145 128 127 144
4 147 130 129 146
4 148 131 130 147
4 149 132 131 148
4 150 133 132 149
4 151 120 119 143
4 152 121 120 151
4 153 122 121 152
4 164 123 122 153
4 154 124 123 164
4 69 68 67 150
4 149 70 69 150
4 148 73 70 149
4 147 74 73 148
4 146 92 74 147
4 145 93 92 146
4 146 129 128 145
4 155 94 93 145
4 162 95 94 155
4 156 96 95 162
4 154 163 96 156
4 157 97 96 163
4 161 101 100 158
4 160 102 101 161
4 159 103 102 160
4 109 63 137 138
4 160 151 143 159
4 161 152 151 160
4 162 155 145 144
4 125 156 162 144
4 124 154 156 125
4 152 157 163 153
4 161 158 157 152
4 164 153 163 154
4 158 98 97 157
4 100 99 98 158
4 134 67 64 135
4 133 150 67 134
4 67 68 165 64
4 135 64 165 136
4 61 136 165 57
4 65 57 165 68
4 7 91 104 6
4 106 108 3 4
4 166 137 108 106
4 139 138 137 166
4 140 139 166 107
4 107 166 106 105
4 103 141 140 107
4 159 142 141 103
4 143 117 116 167
4 159 143 167 142
4 167 116 115 142
CELL_TYPES 140
9
9
9
9
9
9
9
9
9
9
9
9
9
9
9
9
9
9
9
9
9
9
9
9
9
9
9
9
9
9
9
9
9
9
9
9
9
9
9
9
9
9
9
9
9
9
9
9
9
9
9
9
9
9
9
9
9
9
9
9
9
9
9
9
9
9
9
9
9
9
9
9
9
9
9
9
9
9
9
9
9
9
9
9
9
9
9
9
9
9
9
9
9
9
9
9
9
9
9
9
9
9
9
9
9
9
9
9
9
9
9
9
9
9
9
9
9
9
9
9
9
9
9
9
9
9
9
9
9
9
9
9
9
9
9
9
9
9
9
9
POINT_DATA 168
SCALARS fixed int
LOOKUP_TABLE default
1
1
1
1
1
1
1
1
1
1
1
1
1
1
1
1
1
1
1
1
1
1
1
1
1
1
1
1
1
1
1
1
1
1
1
1
1
1
1
1
1
1
1
1
1
1
1
1
1
1
1
1
1
1
1
1
0
0
0
0
0
0
0
0
0
0
0
0
0
0
0
0
0
0
0
0
0
0
0
0
0
0
0
0
0
0
0
0
0
0
0
0
0
0
0
0
0
0
0
0
0
0
0
0
0
0
0
0
0
0
0
0
0
0
0
0
0
0
0
0
0
0
0
0
0
0
0
0
0
0
0
0
0
0
0
0
0
0
0
0
0
0
0
0
0
0
0
0
0
0
0
0
0
0
0
0
0
0
0
0
0
0
0
0
0
0
0
0
